  17  17   0   0
  0.5496246E+02  0.5147737E-09  0.5147737E-09  0.3526000E-08  0.0000000E+00
  1.000000000000000E-004
  CAR 
 unknown system                          
      5.36559051    -10.99521356  301     -1.50457124      1.00000000
    -10.995  0.0000E+00  0.0000E+00
    -10.941  0.0000E+00  0.0000E+00
    -10.886  0.0000E+00  0.0000E+00
    -10.832 -0.1799E-31 -0.9810E-33
    -10.777 -0.1144E-27 -0.6240E-29
    -10.723 -0.3994E-24 -0.2179E-25
    -10.668 -0.7648E-21 -0.4173E-22
    -10.613 -0.8024E-18 -0.4380E-19
    -10.559 -0.4464E-15 -0.2439E-16
    -10.504 -0.1390E-12 -0.7603E-14
    -10.450 -0.2350E-10 -0.1289E-11
    -10.395 -0.2146E-08 -0.1183E-09
    -10.341 -0.1049E-06 -0.5837E-08
    -10.286 -0.2696E-05 -0.1528E-06
    -10.232 -0.3519E-04 -0.2072E-05
    -10.177 -0.2130E-03 -0.1369E-04
    -10.123 -0.3927E-03 -0.3511E-04
    -10.068  0.1202E-02  0.3045E-04
    -10.014  0.5815E-02  0.3476E-03
     -9.959  0.8023E-02  0.7851E-03
     -9.904  0.4172E-02  0.1013E-02
     -9.850  0.3132E-03  0.1030E-02
     -9.795 -0.3971E-03  0.1008E-02
     -9.741 -0.1301E-03  0.1001E-02
     -9.686 -0.1643E-04  0.1000E-02
     -9.632 -0.1177E-05  0.1000E-02
     -9.577 -0.4665E-05  0.9997E-03
     -9.523 -0.6273E-04  0.9963E-03
     -9.468 -0.3969E-03  0.9747E-03
     -9.414 -0.8053E-03  0.9308E-03
     -9.359  0.2068E-02  0.1044E-02
     -9.305  0.1113E-01  0.1650E-02
     -9.250  0.1615E-01  0.2531E-02
     -9.196  0.8871E-02  0.3015E-02
     -9.141  0.8530E-03  0.3062E-02
     -9.086 -0.8083E-03  0.3018E-02
     -9.032 -0.2832E-03  0.3002E-02
     -8.977 -0.3727E-04  0.3000E-02
     -8.923 -0.2821E-05  0.3000E-02
     -8.868 -0.9041E-05  0.2999E-02
     -8.814 -0.8534E-04  0.2995E-02
     -8.759 -0.3428E-03  0.2976E-02
     -8.705 -0.8862E-04  0.2971E-02
     -8.650  0.2961E-02  0.3133E-02
     -8.596  0.7358E-02  0.3534E-02
     -8.541  0.6455E-02  0.3886E-02
     -8.487  0.2857E-02  0.4042E-02
     -8.432  0.4803E-02  0.4304E-02
     -8.377  0.7838E-02  0.4731E-02
     -8.323  0.4868E-02  0.4997E-02
     -8.268  0.6444E-03  0.5032E-02
     -8.214 -0.5582E-03  0.5001E-02
     -8.159 -0.8029E-03  0.4958E-02
     -8.105 -0.3732E-03  0.4937E-02
     -8.050  0.5219E-02  0.5222E-02
     -7.996  0.1443E-01  0.6009E-02
     -7.941  0.1376E-01  0.6759E-02
     -7.887  0.4331E-02  0.6995E-02
     -7.832  0.3591E-02  0.7191E-02
     -7.778  0.1291E-01  0.7895E-02
     -7.723  0.1506E-01  0.8717E-02
     -7.669  0.6168E-02  0.9053E-02
     -7.614 -0.3508E-03  0.9034E-02
     -7.559 -0.1470E-02  0.8954E-02
     -7.505  0.2909E-03  0.8970E-02
     -7.450  0.7838E-02  0.9397E-02
     -7.396  0.1578E-01  0.1026E-01
     -7.341  0.1178E-01  0.1090E-01
     -7.287  0.2469E-02  0.1104E-01
     -7.232  0.1223E-02  0.1110E-01
     -7.178  0.6269E-02  0.1144E-01
     -7.123  0.7544E-02  0.1186E-01
     -7.069  0.3093E-02  0.1202E-01
     -7.014 -0.4023E-03  0.1200E-01
     -6.960 -0.1161E-02  0.1194E-01
     -6.905  0.1582E-02  0.1202E-01
     -6.850  0.1025E-01  0.1258E-01
     -6.796  0.1541E-01  0.1342E-01
     -6.741  0.8879E-02  0.1391E-01
     -6.687  0.6322E-02  0.1425E-01
     -6.632  0.1792E-01  0.1523E-01
     -6.578  0.2731E-01  0.1672E-01
     -6.523  0.1931E-01  0.1777E-01
     -6.469  0.4034E-02  0.1799E-01
     -6.414 -0.5417E-03  0.1796E-01
     -6.360  0.1180E-01  0.1861E-01
     -6.305  0.3315E-01  0.2041E-01
     -6.251  0.4349E-01  0.2279E-01
     -6.196  0.3469E-01  0.2468E-01
     -6.142  0.2233E-01  0.2590E-01
     -6.087  0.2299E-01  0.2715E-01
     -6.032  0.3110E-01  0.2885E-01
     -5.978  0.3758E-01  0.3090E-01
     -5.923  0.4703E-01  0.3346E-01
     -5.869  0.5069E-01  0.3623E-01
     -5.814  0.4517E-01  0.3869E-01
     -5.760  0.4493E-01  0.4114E-01
     -5.705  0.4908E-01  0.4382E-01
     -5.651  0.5602E-01  0.4687E-01
     -5.596  0.7208E-01  0.5080E-01
     -5.542  0.9262E-01  0.5585E-01
     -5.487  0.1042E+00  0.6153E-01
     -5.433  0.9985E-01  0.6698E-01
     -5.378  0.9190E-01  0.7199E-01
     -5.323  0.8864E-01  0.7682E-01
     -5.269  0.9157E-01  0.8182E-01
     -5.214  0.9803E-01  0.8716E-01
     -5.160  0.8563E-01  0.9183E-01
     -5.105  0.5843E-01  0.9502E-01
     -5.051  0.5628E-01  0.9809E-01
     -4.996  0.8045E-01  0.1025E+00
     -4.942  0.8539E-01  0.1071E+00
     -4.887  0.8011E-01  0.1115E+00
     -4.833  0.8474E-01  0.1161E+00
     -4.778  0.6987E-01  0.1199E+00
     -4.724  0.5738E-01  0.1231E+00
     -4.669  0.8120E-01  0.1275E+00
     -4.614  0.1069E+00  0.1333E+00
     -4.560  0.1001E+00  0.1388E+00
     -4.505  0.8558E-01  0.1434E+00
     -4.451  0.9507E-01  0.1486E+00
     -4.396  0.1163E+00  0.1550E+00
     -4.342  0.1396E+00  0.1626E+00
     -4.287  0.1568E+00  0.1711E+00
     -4.233  0.1431E+00  0.1789E+00
     -4.178  0.1136E+00  0.1851E+00
     -4.124  0.9177E-01  0.1901E+00
     -4.069  0.8125E-01  0.1946E+00
     -4.015  0.9428E-01  0.1997E+00
     -3.960  0.1187E+00  0.2062E+00
     -3.906  0.1255E+00  0.2130E+00
     -3.851  0.1290E+00  0.2201E+00
     -3.796  0.1374E+00  0.2276E+00
     -3.742  0.1288E+00  0.2346E+00
     -3.687  0.1234E+00  0.2413E+00
     -3.633  0.1319E+00  0.2485E+00
     -3.578  0.1290E+00  0.2555E+00
     -3.524  0.1383E+00  0.2631E+00
     -3.469  0.1666E+00  0.2722E+00
     -3.415  0.1587E+00  0.2808E+00
     -3.360  0.1302E+00  0.2879E+00
     -3.306  0.1493E+00  0.2961E+00
     -3.251  0.1868E+00  0.3063E+00
     -3.197  0.1855E+00  0.3164E+00
     -3.142  0.1708E+00  0.3257E+00
     -3.087  0.1736E+00  0.3352E+00
     -3.033  0.1726E+00  0.3446E+00
     -2.978  0.1295E+00  0.3516E+00
     -2.924  0.5960E-01  0.3549E+00
     -2.869  0.2051E-01  0.3560E+00
     -2.815  0.1493E-01  0.3568E+00
     -2.760  0.1843E-01  0.3578E+00
     -2.706  0.1998E-01  0.3589E+00
     -2.651  0.1381E-01  0.3597E+00
     -2.597  0.6953E-02  0.3601E+00
     -2.542  0.1004E-01  0.3606E+00
     -2.488  0.1800E-01  0.3616E+00
     -2.433  0.1897E-01  0.3626E+00
     -2.379  0.1606E-01  0.3635E+00
     -2.324  0.1624E-01  0.3644E+00
     -2.269  0.2128E-01  0.3655E+00
     -2.215  0.3135E-01  0.3672E+00
     -2.160  0.3271E-01  0.3690E+00
     -2.106  0.1746E-01  0.3700E+00
     -2.051  0.2435E-02  0.3701E+00
     -1.997 -0.1784E-02  0.3700E+00
     -1.942 -0.6530E-03  0.3700E+00
     -1.888  0.3196E-02  0.3702E+00
     -1.833  0.7667E-02  0.3706E+00
     -1.779  0.6341E-02  0.3709E+00
     -1.724  0.9461E-03  0.3710E+00
     -1.670 -0.5004E-03  0.3709E+00
     -1.615  0.6584E-02  0.3713E+00
     -1.560  0.1975E-01  0.3724E+00
     -1.506  0.2896E-01  0.3740E+00
     -1.451  0.2562E-01  0.3754E+00
     -1.397  0.1523E-01  0.3762E+00
     -1.342  0.1384E-01  0.3769E+00
     -1.288  0.1755E-01  0.3779E+00
     -1.233  0.1429E-01  0.3787E+00
     -1.179  0.9335E-02  0.3792E+00
     -1.124  0.1053E-01  0.3798E+00
     -1.070  0.1256E-01  0.3804E+00
     -1.015  0.8617E-02  0.3809E+00
     -0.961  0.2326E-02  0.3810E+00
     -0.906 -0.6900E-03  0.3810E+00
     -0.852 -0.1192E-02  0.3809E+00
     -0.797  0.1030E-02  0.3810E+00
     -0.742  0.9196E-02  0.3815E+00
     -0.688  0.1544E-01  0.3823E+00
     -0.633  0.1163E-01  0.3830E+00
     -0.579  0.1090E-01  0.3836E+00
     -0.524  0.1516E-01  0.3844E+00
     -0.470  0.1029E-01  0.3850E+00
     -0.415  0.1359E-02  0.3850E+00
     -0.361 -0.1666E-02  0.3849E+00
     -0.306  0.2741E-02  0.3851E+00
     -0.252  0.1402E-01  0.3859E+00
     -0.197  0.2044E-01  0.3870E+00
     -0.143  0.1518E-01  0.3878E+00
     -0.088  0.1464E-01  0.3886E+00
     -0.033  0.2272E-01  0.3898E+00
      0.021  0.2408E-01  0.3911E+00
      0.076  0.2358E-01  0.3924E+00
      0.130  0.2520E-01  0.3938E+00
      0.185  0.1784E-01  0.3948E+00
      0.239  0.4734E-02  0.3950E+00
      0.294 -0.9303E-03  0.3950E+00
      0.348  0.4990E-02  0.3953E+00
      0.403  0.1613E-01  0.3961E+00
      0.457  0.1936E-01  0.3972E+00
      0.512  0.1207E-01  0.3979E+00
      0.566  0.3305E-02  0.3980E+00
      0.621 -0.6357E-03  0.3980E+00
      0.675  0.1021E-02  0.3981E+00
      0.730  0.5913E-02  0.3984E+00
      0.785  0.8563E-02  0.3988E+00
      0.839  0.8269E-02  0.3993E+00
      0.894  0.7563E-02  0.3997E+00
      0.948  0.8310E-02  0.4002E+00
      1.003  0.1397E-01  0.4009E+00
      1.057  0.1456E-01  0.4017E+00
      1.112  0.5190E-02  0.4020E+00
      1.166 -0.7456E-03  0.4020E+00
      1.221  0.5396E-02  0.4023E+00
      1.275  0.1848E-01  0.4033E+00
      1.330  0.2228E-01  0.4045E+00
      1.384  0.1924E-01  0.4055E+00
      1.439  0.2223E-01  0.4067E+00
      1.494  0.1851E-01  0.4077E+00
      1.548  0.5452E-02  0.4080E+00
      1.603 -0.1001E-02  0.4080E+00
      1.657  0.4214E-02  0.4082E+00
      1.712  0.1398E-01  0.4090E+00
      1.766  0.1582E-01  0.4098E+00
      1.821  0.1241E-01  0.4105E+00
      1.875  0.1584E-01  0.4114E+00
      1.930  0.2552E-01  0.4128E+00
      1.984  0.2903E-01  0.4144E+00
      2.039  0.2011E-01  0.4155E+00
      2.093  0.8785E-02  0.4159E+00
      2.148  0.4902E-02  0.4162E+00
      2.203  0.8381E-02  0.4167E+00
      2.257  0.1149E-01  0.4173E+00
      2.312  0.9160E-02  0.4178E+00
      2.366  0.3459E-02  0.4180E+00
      2.421  0.2125E-02  0.4181E+00
      2.475  0.7939E-02  0.4185E+00
      2.530  0.1370E-01  0.4193E+00
      2.584  0.1442E-01  0.4201E+00
      2.639  0.1241E-01  0.4207E+00
      2.693  0.1057E-01  0.4213E+00
      2.748  0.1190E-01  0.4220E+00
      2.802  0.1992E-01  0.4230E+00
      2.857  0.2795E-01  0.4246E+00
      2.911  0.2782E-01  0.4261E+00
      2.966  0.2676E-01  0.4275E+00
      3.021  0.2082E-01  0.4287E+00
      3.075  0.6844E-02  0.4291E+00
      3.130  0.7653E-04  0.4291E+00
      3.184  0.4062E-02  0.4293E+00
      3.239  0.1241E-01  0.4300E+00
      3.293  0.2247E-01  0.4312E+00
      3.348  0.2615E-01  0.4326E+00
      3.402  0.2189E-01  0.4338E+00
      3.457  0.2271E-01  0.4350E+00
      3.511  0.2933E-01  0.4366E+00
      3.566  0.3226E-01  0.4384E+00
      3.620  0.3332E-01  0.4402E+00
      3.675  0.3366E-01  0.4421E+00
      3.730  0.2416E-01  0.4434E+00
      3.784  0.1023E-01  0.4439E+00
      3.839  0.2041E-02  0.4440E+00
      3.893  0.2545E-02  0.4442E+00
      3.948  0.6821E-02  0.4446E+00
      4.002  0.7003E-02  0.4449E+00
      4.057  0.6470E-02  0.4453E+00
      4.111  0.7681E-02  0.4457E+00
      4.166  0.4605E-02  0.4460E+00
      4.220  0.3459E-03  0.4460E+00
      4.275  0.2836E-02  0.4461E+00
      4.329  0.1149E-01  0.4468E+00
      4.384  0.1490E-01  0.4476E+00
      4.438  0.7966E-02  0.4480E+00
      4.493  0.9290E-03  0.4481E+00
      4.548 -0.6808E-03  0.4480E+00
      4.602 -0.2727E-03  0.4480E+00
      4.657 -0.4066E-04  0.4480E+00
      4.711 -0.2946E-05  0.4480E+00
      4.766 -0.1109E-06  0.4480E+00
      4.820 -0.2223E-08  0.4480E+00
      4.875 -0.2403E-10  0.4480E+00
      4.929 -0.1409E-12  0.4480E+00
      4.984 -0.4519E-15  0.4480E+00
      5.038  0.0000E+00  0.4480E+00
      5.093  0.0000E+00  0.4480E+00
      5.147  0.0000E+00  0.4480E+00
      5.202  0.0000E+00  0.4480E+00
      5.257  0.0000E+00  0.4480E+00
      5.311  0.0000E+00  0.4480E+00
      5.366  0.0000E+00  0.4480E+00
