       N       E                     dE             d eps       ncg     rms          rms(c)
DAV:   1     0.150894901755E+04    0.15089E+04   -0.62972E+04  1792   0.135E+03
DAV:   2     0.764400095213E+02   -0.14325E+04   -0.13794E+04  1792   0.365E+02
DAV:   3    -0.600992607854E+02   -0.13654E+03   -0.12369E+03  2000   0.162E+02
DAV:   4    -0.689712696883E+02   -0.88720E+01   -0.87107E+01  2296   0.485E+01
DAV:   5    -0.691816193762E+02   -0.21035E+00   -0.20989E+00  2176   0.685E+00    0.287E+01
DAV:   6    -0.625078445916E+02    0.66738E+01   -0.15355E+02  1984   0.128E+02    0.155E+01
DAV:   7    -0.564724369226E+02    0.60354E+01   -0.30342E+01  2160   0.824E+01    0.456E+00
DAV:   8    -0.566374272687E+02   -0.16499E+00   -0.64379E+00  2264   0.443E+01    0.298E+00
DAV:   9    -0.566840891452E+02   -0.46662E-01   -0.19952E+00  2248   0.238E+01    0.279E+00
DAV:  10    -0.566409783987E+02    0.43111E-01   -0.89830E-01  2088   0.233E+01    0.188E+00
DAV:  11    -0.565710198749E+02    0.69959E-01   -0.57857E-01  2640   0.167E+01    0.664E-01
DAV:  12    -0.565643622103E+02    0.66577E-02   -0.23232E-01  2536   0.729E+00    0.303E-01
DAV:  13    -0.565680173367E+02   -0.36551E-02   -0.70365E-02  2008   0.319E+00    0.214E-01
DAV:  14    -0.565678115133E+02    0.20582E-03   -0.99745E-03  2104   0.176E+00    0.214E-01
DAV:  15    -0.565669805997E+02    0.83091E-03   -0.43389E-03  2016   0.976E-01    0.623E-02
DAV:  16    -0.565671291656E+02   -0.14857E-03   -0.16896E-03  2264   0.615E-01    0.947E-02
DAV:  17    -0.565670584101E+02    0.70755E-04   -0.10200E-03  2128   0.453E-01    0.393E-02
DAV:  18    -0.565672849969E+02   -0.22659E-03   -0.89257E-04  2128   0.437E-01    0.865E-02
DAV:  19    -0.565673694140E+02   -0.84417E-04   -0.98634E-04  1888   0.392E-01    0.288E-02
DAV:  20    -0.565675801350E+02   -0.21072E-03   -0.11584E-04  2112   0.165E-01    0.160E-02
DAV:  21    -0.565676888971E+02   -0.10876E-03   -0.27626E-05  2064   0.963E-02    0.790E-03
DAV:  22    -0.565678855885E+02   -0.19669E-03   -0.21775E-05  2112   0.503E-02    0.877E-03
DAV:  23    -0.565680402470E+02   -0.15466E-03   -0.13612E-05  2272   0.424E-02    0.322E-03
DAV:  24    -0.565680768227E+02   -0.36576E-04   -0.21505E-06  2224   0.242E-02    0.280E-03
DAV:  25    -0.565681368962E+02   -0.60074E-04   -0.25517E-06  2160   0.187E-02    0.406E-03
DAV:  26    -0.565681685158E+02   -0.31620E-04   -0.11735E-06  2032   0.116E-02    0.241E-03
DAV:  27    -0.565681766431E+02   -0.81274E-05   -0.22085E-07  1248   0.765E-03    0.191E-03
DAV:  28    -0.565681892636E+02   -0.12620E-04   -0.34427E-07  1392   0.815E-03    0.153E-03
DAV:  29    -0.565681955115E+02   -0.62479E-05   -0.15110E-07  1152   0.270E-03    0.153E-03
DAV:  30    -0.565681968365E+02   -0.13250E-05   -0.44633E-08  1200   0.285E-03    0.148E-03
DAV:  31    -0.565681985193E+02   -0.16828E-05   -0.36673E-08  1088   0.279E-03    0.149E-03
DAV:  32    -0.565681989167E+02   -0.39733E-06   -0.26730E-08  1168   0.169E-03    0.145E-03
DAV:  33    -0.565681990499E+02   -0.13323E-06   -0.93856E-09  1104   0.998E-04    0.146E-03
DAV:  34    -0.565681991403E+02   -0.90447E-07   -0.10896E-08  1104   0.106E-03
   1 F= -.56568199E+02 E0= -.56563285E+02  d E =-.565682E+02
       N       E                     dE             d eps       ncg     rms          rms(c)
DAV:   1    -0.566924383045E+02   -0.12424E+00   -0.11083E+01  1824   0.915E+00    0.484E-01
DAV:   2    -0.567182058926E+02   -0.25768E-01   -0.27289E-01  2624   0.406E+00    0.461E-01
DAV:   3    -0.567174421592E+02    0.76373E-03   -0.15781E-02  2064   0.277E+00    0.278E-01
DAV:   4    -0.567178759211E+02   -0.43376E-03   -0.84595E-03  2016   0.216E+00    0.186E-01
DAV:   5    -0.567179827392E+02   -0.10682E-03   -0.14236E-02  2048   0.290E+00    0.147E-01
DAV:   6    -0.567172574836E+02    0.72526E-03   -0.53167E-03  2304   0.190E+00    0.273E-02
DAV:   7    -0.567172829029E+02   -0.25419E-04   -0.66737E-04  2576   0.355E-01    0.186E-02
DAV:   8    -0.567172901390E+02   -0.72361E-05   -0.16776E-04  1920   0.158E-01    0.136E-02
DAV:   9    -0.567172906848E+02   -0.54587E-06   -0.41015E-05  2032   0.102E-01    0.808E-03
DAV:  10    -0.567172906477E+02    0.37126E-07   -0.10683E-05  3280   0.508E-02    0.430E-03
DAV:  11    -0.567172904330E+02    0.21472E-06   -0.65890E-06  2656   0.422E-02    0.261E-03
DAV:  12    -0.567172908634E+02   -0.43042E-06   -0.20302E-06  1920   0.256E-02    0.210E-03
DAV:  13    -0.567172911244E+02   -0.26099E-06   -0.33314E-07  1504   0.104E-02    0.185E-03
DAV:  14    -0.567172915854E+02   -0.46099E-06   -0.21955E-07  1168   0.846E-03    0.145E-03
DAV:  15    -0.567172920912E+02   -0.50582E-06   -0.78378E-08  1104   0.375E-03    0.146E-03
DAV:  16    -0.567172923813E+02   -0.29005E-06   -0.40029E-08  1120   0.257E-03    0.142E-03
DAV:  17    -0.567172929520E+02   -0.57074E-06   -0.32766E-08  1072   0.186E-03    0.138E-03
DAV:  18    -0.567172936521E+02   -0.70011E-06   -0.25808E-08  1088   0.196E-03    0.139E-03
DAV:  19    -0.567172940672E+02   -0.41510E-06   -0.26441E-08  1120   0.121E-03    0.137E-03
DAV:  20    -0.567172941456E+02   -0.78351E-07   -0.70663E-09  1152   0.746E-04
   2 F= -.56717294E+02 E0= -.56712668E+02  d E =-.149095E+00
       N       E                     dE             d eps       ncg     rms          rms(c)
DAV:   1    -0.567872810997E+02   -0.69987E-01   -0.32817E+01  1824   0.159E+01    0.766E-01
DAV:   2    -0.568780076396E+02   -0.90727E-01   -0.97481E-01  2640   0.883E+00    0.883E-01
DAV:   3    -0.568717098434E+02    0.62978E-02   -0.48505E-02  2176   0.532E+00    0.468E-01
DAV:   4    -0.568724289691E+02   -0.71913E-03   -0.21669E-02  2400   0.283E+00    0.352E-01
DAV:   5    -0.568732864306E+02   -0.85746E-03   -0.40463E-02  1984   0.497E+00    0.286E-01
DAV:   6    -0.568709268150E+02    0.23596E-02   -0.16139E-02  2352   0.336E+00    0.584E-02
DAV:   7    -0.568711056874E+02   -0.17887E-03   -0.26456E-03  2560   0.643E-01    0.432E-02
DAV:   8    -0.568711205528E+02   -0.14865E-04   -0.58452E-04  1968   0.316E-01    0.324E-02
DAV:   9    -0.568711148411E+02    0.57116E-05   -0.14769E-04  2064   0.189E-01    0.179E-02
DAV:  10    -0.568711111298E+02    0.37113E-05   -0.50474E-05  3408   0.116E-01    0.647E-03
DAV:  11    -0.568711097337E+02    0.13962E-05   -0.25644E-05  2768   0.866E-02    0.433E-03
DAV:  12    -0.568711104545E+02   -0.72079E-06   -0.65858E-06  1968   0.451E-02    0.289E-03
DAV:  13    -0.568711108615E+02   -0.40706E-06   -0.14195E-06  1904   0.217E-02    0.210E-03
DAV:  14    -0.568711116347E+02   -0.77322E-06   -0.66764E-07  1824   0.141E-02    0.148E-03
DAV:  15    -0.568711126617E+02   -0.10270E-05   -0.94793E-08  1104   0.386E-03    0.141E-03
DAV:  16    -0.568711138136E+02   -0.11519E-05   -0.85954E-08  1104   0.431E-03    0.134E-03
DAV:  17    -0.568711142668E+02   -0.45318E-06   -0.25650E-08  1152   0.237E-03    0.132E-03
DAV:  18    -0.568711154452E+02   -0.11785E-05   -0.47860E-08  1088   0.199E-03    0.131E-03
DAV:  19    -0.568711164322E+02   -0.98702E-06   -0.40873E-08  1104   0.185E-03    0.130E-03
DAV:  20    -0.568711166895E+02   -0.25729E-06   -0.14879E-08  1136   0.140E-03    0.130E-03
DAV:  21    -0.568711170711E+02   -0.38161E-06   -0.14712E-08  1072   0.106E-03    0.129E-03
DAV:  22    -0.568711173060E+02   -0.23483E-06   -0.74967E-09  1088   0.624E-04    0.129E-03
DAV:  23    -0.568711173616E+02   -0.55628E-07   -0.28705E-09  1152   0.480E-04
   3 F= -.56871117E+02 E0= -.56866984E+02  d E =-.153823E+00
       N       E                     dE             d eps       ncg     rms          rms(c)
DAV:   1    -0.568157211301E+02    0.55396E-01   -0.45882E+01  1808   0.185E+01    0.750E-01
DAV:   2    -0.569424765880E+02   -0.12676E+00   -0.13553E+00  2640   0.966E+00    0.959E-01
DAV:   3    -0.569351783809E+02    0.72982E-02   -0.58761E-02  2128   0.525E+00    0.504E-01
DAV:   4    -0.569353568720E+02   -0.17849E-03   -0.19399E-02  2416   0.260E+00    0.415E-01
DAV:   5    -0.569355383115E+02   -0.18144E-03   -0.29580E-02  1984   0.424E+00    0.285E-01
DAV:   6    -0.569337841829E+02    0.17541E-02   -0.16123E-02  2336   0.325E+00    0.110E-01
DAV:   7    -0.569339249535E+02   -0.14077E-03   -0.41018E-03  2592   0.102E+00    0.554E-02
DAV:   8    -0.569339514688E+02   -0.26515E-04   -0.85530E-04  2016   0.364E-01    0.452E-02
DAV:   9    -0.569339356226E+02    0.15846E-04   -0.23055E-04  1920   0.247E-01    0.241E-02
DAV:  10    -0.569339276508E+02    0.79718E-05   -0.98575E-05  3472   0.167E-01    0.856E-03
DAV:  11    -0.569339243068E+02    0.33440E-05   -0.51383E-05  2656   0.124E-01    0.667E-03
DAV:  12    -0.569339243532E+02   -0.46406E-07   -0.10358E-05  1984   0.467E-02    0.319E-03
DAV:  13    -0.569339245801E+02   -0.22689E-06   -0.18436E-06  1968   0.244E-02    0.218E-03
DAV:  14    -0.569339253837E+02   -0.80366E-06   -0.92745E-07  1888   0.163E-02    0.197E-03
DAV:  15    -0.569339260855E+02   -0.70174E-06   -0.23416E-07  1168   0.973E-03    0.152E-03
DAV:  16    -0.569339264334E+02   -0.34793E-06   -0.49060E-08  1168   0.392E-03    0.145E-03
DAV:  17    -0.569339272022E+02   -0.76877E-06   -0.37556E-08  1088   0.329E-03    0.143E-03
DAV:  18    -0.569339282559E+02   -0.10538E-05   -0.64970E-08  1088   0.317E-03    0.144E-03
DAV:  19    -0.569339287285E+02   -0.47261E-06   -0.30626E-08  1136   0.173E-03    0.143E-03
DAV:  20    -0.569339292800E+02   -0.55153E-06   -0.20450E-08  1072   0.181E-03    0.141E-03
DAV:  21    -0.569339297496E+02   -0.46956E-06   -0.17360E-08  1072   0.104E-03    0.140E-03
DAV:  22    -0.569339298663E+02   -0.11667E-06   -0.76189E-09  1152   0.612E-04    0.140E-03
DAV:  23    -0.569339300438E+02   -0.17754E-06   -0.49740E-09  1072   0.752E-04    0.140E-03
DAV:  24    -0.569339300849E+02   -0.41047E-07   -0.16932E-09  1120   0.384E-04
   4 F= -.56933930E+02 E0= -.56930194E+02  d E =-.628127E-01
       N       E                     dE             d eps       ncg     rms          rms(c)
DAV:   1    -0.569308961430E+02    0.30339E-02   -0.66544E+00  1856   0.791E+00    0.178E-01
DAV:   2    -0.569449212751E+02   -0.14025E-01   -0.14722E-01  2640   0.251E+00    0.227E-01
DAV:   3    -0.569445924044E+02    0.32887E-03   -0.44876E-03  2032   0.104E+00    0.137E-01
DAV:   4    -0.569445137592E+02    0.78645E-04   -0.89755E-04  1952   0.632E-01    0.121E-01
DAV:   5    -0.569443487831E+02    0.16498E-03   -0.52494E-04  2384   0.500E-01    0.676E-02
DAV:   6    -0.569444080514E+02   -0.59268E-04   -0.16046E-03  3136   0.891E-01    0.605E-02
DAV:   7    -0.569442685016E+02    0.13955E-03   -0.80472E-04  2368   0.713E-01    0.923E-03
DAV:   8    -0.569442820916E+02   -0.13590E-04   -0.15205E-04  2304   0.860E-02    0.144E-02
DAV:   9    -0.569442810922E+02    0.99943E-06   -0.13042E-05  1968   0.432E-02    0.105E-02
DAV:  10    -0.569442791507E+02    0.19414E-05   -0.50370E-06  2720   0.292E-02    0.506E-03
DAV:  11    -0.569442790543E+02    0.96428E-07   -0.18545E-06  1920   0.208E-02    0.411E-03
DAV:  12    -0.569442788617E+02    0.19254E-06   -0.21332E-06  1968   0.194E-02    0.268E-03
DAV:  13    -0.569442789883E+02   -0.12658E-06   -0.12965E-06  2096   0.148E-02    0.329E-03
DAV:  14    -0.569442788675E+02    0.12083E-06   -0.25972E-07  1216   0.648E-03    0.194E-03
DAV:  15    -0.569442789523E+02   -0.84805E-07   -0.21872E-07  1104   0.580E-03
   5 F= -.56944279E+02 E0= -.56940167E+02  d E =-.103489E-01
       N       E                     dE             d eps       ncg     rms          rms(c)
DAV:   1    -0.569381384971E+02    0.61404E-02   -0.47339E+00  1792   0.579E+00    0.148E-01
DAV:   2    -0.569483204675E+02   -0.10182E-01   -0.10556E-01  2640   0.195E+00    0.168E-01
DAV:   3    -0.569481799055E+02    0.14056E-03   -0.38830E-03  2320   0.946E-01    0.108E-01
DAV:   4    -0.569481851692E+02   -0.52636E-05   -0.13397E-03  2000   0.901E-01    0.877E-02
DAV:   5    -0.569480967353E+02    0.88434E-04   -0.85797E-04  2256   0.735E-01    0.587E-02
DAV:   6    -0.569480874870E+02    0.92482E-05   -0.60899E-04  2976   0.595E-01    0.357E-02
DAV:   7    -0.569480737071E+02    0.13780E-04   -0.25269E-04  2784   0.310E-01    0.109E-02
DAV:   8    -0.569480760603E+02   -0.23531E-05   -0.54575E-05  2112   0.746E-02    0.104E-02
DAV:   9    -0.569480756887E+02    0.37153E-06   -0.25842E-05  2032   0.721E-02    0.693E-03
DAV:  10    -0.569480752979E+02    0.39084E-06   -0.11070E-05  2176   0.596E-02    0.545E-03
DAV:  11    -0.569480750195E+02    0.27837E-06   -0.34337E-06  1968   0.355E-02    0.237E-03
DAV:  12    -0.569480751389E+02   -0.11942E-06   -0.52487E-07  1648   0.962E-03    0.188E-03
DAV:  13    -0.569480752560E+02   -0.11708E-06   -0.16324E-07  1136   0.735E-03    0.160E-03
DAV:  14    -0.569480755467E+02   -0.29063E-06   -0.11109E-07  1104   0.722E-03    0.160E-03
DAV:  15    -0.569480758113E+02   -0.26464E-06   -0.80097E-08  1104   0.332E-03    0.146E-03
DAV:  16    -0.569480759665E+02   -0.15517E-06   -0.16184E-08  1136   0.181E-03    0.145E-03
DAV:  17    -0.569480761661E+02   -0.19962E-06   -0.12340E-08  1072   0.143E-03    0.145E-03
DAV:  18    -0.569480767959E+02   -0.62987E-06   -0.27565E-08  1088   0.163E-03    0.146E-03
DAV:  19    -0.569480769249E+02   -0.12897E-06   -0.83389E-09  1168   0.827E-04    0.145E-03
DAV:  20    -0.569480769726E+02   -0.47661E-07   -0.39400E-09  1040   0.586E-04
   6 F= -.56948077E+02 E0= -.56943840E+02  d E =-.379802E-02
       N       E                     dE             d eps       ncg     rms          rms(c)
DAV:   1    -0.569464152681E+02    0.16617E-02   -0.16888E+00  1856   0.399E+00    0.857E-02
DAV:   2    -0.569495434442E+02   -0.31282E-02   -0.32982E-02  2640   0.113E+00    0.102E-01
DAV:   3    -0.569494582182E+02    0.85226E-04   -0.15000E-03  1968   0.649E-01    0.714E-02
DAV:   4    -0.569494357169E+02    0.22501E-04   -0.35773E-04  2016   0.439E-01    0.555E-02
DAV:   5    -0.569494046819E+02    0.31035E-04   -0.23808E-04  3040   0.347E-01    0.442E-02
DAV:   6    -0.569493827949E+02    0.21887E-04   -0.28669E-04  2656   0.411E-01    0.226E-02
DAV:   7    -0.569493670270E+02    0.15768E-04   -0.15874E-04  3120   0.205E-01    0.655E-03
DAV:   8    -0.569493692319E+02   -0.22049E-05   -0.28987E-05  2160   0.465E-02    0.643E-03
DAV:   9    -0.569493691251E+02    0.10677E-06   -0.39614E-06  2000   0.253E-02    0.454E-03
DAV:  10    -0.569493688153E+02    0.30987E-06   -0.14920E-06  2000   0.157E-02    0.256E-03
DAV:  11    -0.569493686906E+02    0.12464E-06   -0.91142E-07  1968   0.120E-02    0.162E-03
DAV:  12    -0.569493687316E+02   -0.40982E-07   -0.30508E-07  1104   0.933E-03
   7 F= -.56949369E+02 E0= -.56944911E+02  d E =-.129176E-02
       N       E                     dE             d eps       ncg     rms          rms(c)
DAV:   1    -0.569490267776E+02    0.34191E-03   -0.41994E-01  1792   0.181E+00    0.449E-02
DAV:   2    -0.569499129217E+02   -0.88614E-03   -0.92915E-03  2656   0.600E-01    0.458E-02
DAV:   3    -0.569499183117E+02   -0.53900E-05   -0.55769E-04  2144   0.425E-01    0.359E-02
DAV:   4    -0.569499115897E+02    0.67219E-05   -0.17005E-04  1968   0.333E-01    0.266E-02
DAV:   5    -0.569499051136E+02    0.64761E-05   -0.64887E-05  3136   0.160E-01    0.168E-02
DAV:   6    -0.569499046551E+02    0.45852E-06   -0.34819E-05  2272   0.160E-01    0.113E-02
DAV:   7    -0.569499027987E+02    0.18564E-05   -0.16630E-05  2368   0.859E-02    0.393E-03
DAV:   8    -0.569499029532E+02   -0.15443E-06   -0.48889E-06  2912   0.308E-02    0.257E-03
DAV:   9    -0.569499031123E+02   -0.15915E-06   -0.19694E-06  1920   0.133E-02    0.226E-03
DAV:  10    -0.569499031079E+02    0.44092E-08   -0.29790E-07  1248   0.879E-03
   8 F= -.56949903E+02 E0= -.56945472E+02  d E =-.534376E-03
       N       E                     dE             d eps       ncg     rms          rms(c)
DAV:   1    -0.569499416588E+02   -0.38546E-04   -0.16103E-01  1856   0.122E+00    0.247E-02
DAV:   2    -0.569502338973E+02   -0.29224E-03   -0.31051E-03  2624   0.355E-01    0.275E-02
DAV:   3    -0.569502325316E+02    0.13657E-05   -0.22410E-04  1984   0.284E-01    0.232E-02
DAV:   4    -0.569502282878E+02    0.42438E-05   -0.44357E-05  1968   0.148E-01    0.164E-02
DAV:   5    -0.569502248527E+02    0.34351E-05   -0.17362E-05  2944   0.576E-02    0.113E-02
DAV:   6    -0.569502227458E+02    0.21068E-05   -0.12253E-05  2240   0.964E-02    0.679E-03
DAV:   7    -0.569502219836E+02    0.76223E-06   -0.66969E-06  2624   0.542E-02    0.289E-03
DAV:   8    -0.569502220900E+02   -0.10638E-06   -0.16203E-06  2512   0.204E-02    0.191E-03
DAV:   9    -0.569502221488E+02   -0.58841E-07   -0.41639E-07  1600   0.804E-03
   9 F= -.56950222E+02 E0= -.56945730E+02  d E =-.319041E-03
       N       E                     dE             d eps       ncg     rms          rms(c)
DAV:   1    -0.569501700052E+02    0.52085E-04   -0.18304E-01  1856   0.127E+00    0.258E-02
DAV:   2    -0.569505361736E+02   -0.36617E-03   -0.38751E-03  2624   0.407E-01    0.311E-02
DAV:   3    -0.569505343673E+02    0.18063E-05   -0.30107E-04  2096   0.327E-01    0.241E-02
DAV:   4    -0.569505307470E+02    0.36204E-05   -0.60729E-05  1984   0.170E-01    0.171E-02
DAV:   5    -0.569505280962E+02    0.26508E-05   -0.20219E-05  2856   0.668E-02    0.128E-02
DAV:   6    -0.569505260509E+02    0.20453E-05   -0.13094E-05  2160   0.971E-02    0.747E-03
DAV:   7    -0.569505250357E+02    0.10152E-05   -0.90922E-06  2784   0.565E-02    0.253E-03
DAV:   8    -0.569505252173E+02   -0.18158E-06   -0.18657E-06  2688   0.155E-02    0.206E-03
DAV:   9    -0.569505252587E+02   -0.41433E-07   -0.34807E-07  1536   0.831E-03
  10 F= -.56950525E+02 E0= -.56945997E+02  d E =-.303110E-03
       N       E                     dE             d eps       ncg     rms          rms(c)
DAV:   1    -0.569504081591E+02    0.11706E-03   -0.21753E-01  1872   0.140E+00    0.282E-02
DAV:   2    -0.569508350297E+02   -0.42687E-03   -0.45235E-03  2624   0.437E-01    0.338E-02
DAV:   3    -0.569508317868E+02    0.32429E-05   -0.35031E-04  2064   0.352E-01    0.265E-02
DAV:   4    -0.569508274026E+02    0.43842E-05   -0.70867E-05  2000   0.184E-01    0.188E-02
DAV:   5    -0.569508241791E+02    0.32235E-05   -0.23916E-05  2848   0.713E-02    0.140E-02
DAV:   6    -0.569508217827E+02    0.23964E-05   -0.15746E-05  2160   0.107E-01    0.817E-03
DAV:   7    -0.569508206168E+02    0.11658E-05   -0.10942E-05  2800   0.624E-02    0.277E-03
DAV:   8    -0.569508208411E+02   -0.22428E-06   -0.22326E-06  2752   0.178E-02    0.215E-03
DAV:   9    -0.569508208926E+02   -0.51477E-07   -0.43661E-07  1776   0.921E-03
  11 F= -.56950821E+02 E0= -.56946247E+02  d E =-.295634E-03
       N       E                     dE             d eps       ncg     rms          rms(c)
DAV:   1    -0.569506103808E+02    0.21046E-03   -0.25372E-01  1856   0.150E+00    0.305E-02
DAV:   2    -0.569511148563E+02   -0.50448E-03   -0.53454E-03  2624   0.474E-01    0.368E-02
DAV:   3    -0.569511106853E+02    0.41710E-05   -0.41457E-04  2080   0.382E-01    0.287E-02
DAV:   4    -0.569511057089E+02    0.49764E-05   -0.83926E-05  1968   0.202E-01    0.204E-02
DAV:   5    -0.569511021932E+02    0.35157E-05   -0.28453E-05  2848   0.783E-02    0.152E-02
DAV:   6    -0.569510997107E+02    0.24825E-05   -0.18485E-05  2144   0.116E-01    0.894E-03
DAV:   7    -0.569510983853E+02    0.13253E-05   -0.13014E-05  2800   0.678E-02    0.292E-03
DAV:   8    -0.569510986396E+02   -0.25421E-06   -0.26928E-06  2800   0.191E-02    0.227E-03
DAV:   9    -0.569510986931E+02   -0.53573E-07   -0.52722E-07  1888   0.990E-03
  12 F= -.56951099E+02 E0= -.56946481E+02  d E =-.277801E-03
       N       E                     dE             d eps       ncg     rms          rms(c)
DAV:   1    -0.569508036508E+02    0.29499E-03   -0.28585E-01  1872   0.160E+00    0.324E-02
DAV:   2    -0.569513667933E+02   -0.56314E-03   -0.59724E-03  2640   0.500E-01    0.391E-02
DAV:   3    -0.569513612297E+02    0.55636E-05   -0.46254E-04  2080   0.404E-01    0.306E-02
DAV:   4    -0.569513555801E+02    0.56496E-05   -0.93788E-05  2016   0.213E-01    0.217E-02
DAV:   5    -0.569513516888E+02    0.38913E-05   -0.31748E-05  2816   0.822E-02    0.161E-02
DAV:   6    -0.569513491118E+02    0.25770E-05   -0.21067E-05  2160   0.124E-01    0.946E-03
DAV:   7    -0.569513476682E+02    0.14435E-05   -0.14638E-05  2800   0.724E-02    0.306E-03
DAV:   8    -0.569513479834E+02   -0.31518E-06   -0.30333E-06  2800   0.206E-02    0.235E-03
DAV:   9    -0.569513480527E+02   -0.69293E-07   -0.58846E-07  1888   0.107E-02
  13 F= -.56951348E+02 E0= -.56946681E+02  d E =-.249360E-03
       N       E                     dE             d eps       ncg     rms          rms(c)
DAV:   1    -0.569509483099E+02    0.39967E-03   -0.31560E-01  1856   0.167E+00    0.341E-02
DAV:   2    -0.569515792905E+02   -0.63098E-03   -0.66932E-03  2640   0.529E-01    0.413E-02
DAV:   3    -0.569515732412E+02    0.60493E-05   -0.52054E-04  2080   0.427E-01    0.322E-02
DAV:   4    -0.569515671517E+02    0.60895E-05   -0.10600E-04  2016   0.228E-01    0.228E-02
DAV:   5    -0.569515631056E+02    0.40461E-05   -0.35814E-05  2864   0.880E-02    0.170E-02
DAV:   6    -0.569515605498E+02    0.25558E-05   -0.23251E-05  2128   0.131E-01    0.101E-02
DAV:   7    -0.569515588747E+02    0.16750E-05   -0.16459E-05  2800   0.764E-02    0.319E-03
DAV:   8    -0.569515592168E+02   -0.34206E-06   -0.34229E-06  2816   0.216E-02    0.244E-03
DAV:   9    -0.569515592939E+02   -0.77136E-07   -0.67785E-07  1920   0.111E-02
  14 F= -.56951559E+02 E0= -.56946849E+02  d E =-.211241E-03
       N       E                     dE             d eps       ncg     rms          rms(c)
DAV:   1    -0.569511043155E+02    0.45490E-03   -0.32971E-01  1872   0.173E+00    0.349E-02
DAV:   2    -0.569517395100E+02   -0.63519E-03   -0.67564E-03  2640   0.530E-01    0.419E-02
DAV:   3    -0.569517320746E+02    0.74354E-05   -0.52151E-04  2048   0.430E-01    0.331E-02
DAV:   4    -0.569517253637E+02    0.67110E-05   -0.10512E-04  2000   0.225E-01    0.235E-02
DAV:   5    -0.569517208923E+02    0.44713E-05   -0.36392E-05  2832   0.875E-02    0.172E-02
DAV:   6    -0.569517183430E+02    0.25494E-05   -0.24987E-05  2192   0.135E-01    0.100E-02
DAV:   7    -0.569517167249E+02    0.16181E-05   -0.16826E-05  2800   0.786E-02    0.321E-03
DAV:   8    -0.569517170745E+02   -0.34968E-06   -0.35143E-06  2816   0.227E-02    0.242E-03
DAV:   9    -0.569517171569E+02   -0.82389E-07   -0.67884E-07  1904   0.116E-02
  15 F= -.56951717E+02 E0= -.56946949E+02  d E =-.157863E-03
       N       E                     dE             d eps       ncg     rms          rms(c)
DAV:   1    -0.569512064781E+02    0.51060E-03   -0.27831E-01  1840   0.155E+00    0.340E-02
DAV:   2    -0.569517898256E+02   -0.58335E-03   -0.61787E-03  2640   0.506E-01    0.395E-02
DAV:   3    -0.569517880548E+02    0.17708E-05   -0.46575E-04  2112   0.401E-01    0.304E-02
DAV:   4    -0.569517826976E+02    0.53572E-05   -0.10316E-04  1968   0.240E-01    0.219E-02
DAV:   5    -0.569517793669E+02    0.33307E-05   -0.36908E-05  2944   0.997E-02    0.158E-02
DAV:   6    -0.569517777862E+02    0.15808E-05   -0.22047E-05  2096   0.131E-01    0.994E-03
DAV:   7    -0.569517761302E+02    0.16560E-05   -0.14080E-05  2704   0.728E-02    0.333E-03
DAV:   8    -0.569517763872E+02   -0.25699E-06   -0.32769E-06  2896   0.233E-02    0.230E-03
DAV:   9    -0.569517764764E+02   -0.89225E-07   -0.88404E-07  1888   0.106E-02
  16 F= -.56951776E+02 E0= -.56947013E+02  d E =-.593195E-04
       N       E                     dE             d eps       ncg     rms          rms(c)
DAV:   1    -0.569517896628E+02   -0.13276E-04   -0.15261E-03  1824   0.123E-01    0.315E-03
DAV:   2    -0.569517922012E+02   -0.25384E-05   -0.27330E-05  2624   0.315E-02    0.289E-03
DAV:   3    -0.569517921745E+02    0.26634E-07   -0.35463E-07  1392   0.122E-02
  17 F= -.56951792E+02 E0= -.56947020E+02  d E =-.156982E-04
       N       E                     dE             d eps       ncg     rms          rms(c)
DAV:   1    -0.569518044481E+02   -0.12247E-04   -0.33999E-03  1856   0.183E-01    0.524E-03
DAV:   2    -0.569518097421E+02   -0.52940E-05   -0.58422E-05  2624   0.455E-02    0.466E-03
DAV:   3    -0.569518096173E+02    0.12479E-06   -0.87377E-07  1920   0.163E-02    0.363E-03
DAV:   4    -0.569518095734E+02    0.43921E-07   -0.10095E-06  1968   0.276E-02    0.300E-03
DAV:   5    -0.569518097931E+02   -0.21974E-06   -0.20562E-06  1520   0.356E-02    0.206E-03
DAV:   6    -0.569518095995E+02    0.19358E-06   -0.68816E-07  1232   0.212E-02    0.112E-03
DAV:   7    -0.569518096626E+02   -0.63039E-07   -0.23193E-07  1152   0.281E-03
  18 F= -.56951810E+02 E0= -.56947025E+02  d E =-.174880E-04
       N       E                     dE             d eps       ncg     rms          rms(c)
DAV:   1    -0.569518152764E+02   -0.56769E-05   -0.51604E-03  1856   0.225E-01    0.540E-03
DAV:   2    -0.569518232020E+02   -0.79256E-05   -0.87022E-05  2624   0.634E-02    0.524E-03
DAV:   3    -0.569518233355E+02   -0.13347E-06   -0.63674E-06  1920   0.544E-02    0.430E-03
DAV:   4    -0.569518230904E+02    0.24509E-06   -0.15479E-06  1984   0.298E-02    0.303E-03
DAV:   5    -0.569518231637E+02   -0.73356E-07   -0.88085E-07  1776   0.211E-02
  19 F= -.56951823E+02 E0= -.56947024E+02  d E =-.135012E-04
       N       E                     dE             d eps       ncg     rms          rms(c)
DAV:   1    -0.569518232481E+02   -0.15772E-06   -0.50996E-03  1904   0.221E-01    0.469E-03
DAV:   2    -0.569518326905E+02   -0.94424E-05   -0.10091E-04  2624   0.668E-02    0.558E-03
DAV:   3    -0.569518326164E+02    0.74131E-07   -0.70126E-06  2032   0.548E-02    0.389E-03
DAV:   4    -0.569518324871E+02    0.12930E-06   -0.17544E-06  1968   0.293E-02    0.311E-03
DAV:   5    -0.569518324033E+02    0.83812E-07   -0.54353E-07  1488   0.178E-02
  20 F= -.56951832E+02 E0= -.56947025E+02  d E =-.923952E-05
       N       E                     dE             d eps       ncg     rms          rms(c)
DAV:   1    -0.569518295746E+02    0.29124E-05   -0.62827E-03  1856   0.243E-01    0.504E-03
DAV:   2    -0.569518416509E+02   -0.12076E-04   -0.12741E-04  2624   0.699E-02    0.579E-03
DAV:   3    -0.569518415875E+02    0.63475E-07   -0.75334E-06  2016   0.530E-02    0.443E-03
DAV:   4    -0.569518414148E+02    0.17271E-06   -0.18801E-06  2000   0.313E-02    0.348E-03
DAV:   5    -0.569518412594E+02    0.15538E-06   -0.59423E-07  1568   0.186E-02    0.282E-03
DAV:   6    -0.569518410561E+02    0.20324E-06   -0.10217E-06  2208   0.210E-02    0.163E-03
DAV:   7    -0.569518410172E+02    0.38941E-07   -0.22103E-07  1104   0.902E-03
  21 F= -.56951841E+02 E0= -.56947027E+02  d E =-.861395E-05
       N       E                     dE             d eps       ncg     rms          rms(c)
DAV:   1    -0.569518350547E+02    0.60014E-05   -0.77025E-03  1872   0.261E-01    0.540E-03
DAV:   2    -0.569518502995E+02   -0.15245E-04   -0.16222E-04  2624   0.845E-02    0.636E-03
DAV:   3    -0.569518503214E+02   -0.21915E-07   -0.14040E-05  2048   0.719E-02    0.501E-03
DAV:   4    -0.569518501255E+02    0.19591E-06   -0.28369E-06  1984   0.363E-02    0.350E-03
DAV:   5    -0.569518499720E+02    0.15346E-06   -0.82179E-07  2272   0.134E-02    0.281E-03
DAV:   6    -0.569518497541E+02    0.21794E-06   -0.57436E-07  1816   0.191E-02    0.178E-03
DAV:   7    -0.569518496620E+02    0.92114E-07   -0.29266E-07  1088   0.118E-02
  22 F= -.56951850E+02 E0= -.56947029E+02  d E =-.864478E-05
       N       E                     dE             d eps       ncg     rms          rms(c)
DAV:   1    -0.569518412939E+02    0.84601E-05   -0.89152E-03  1904   0.285E-01    0.581E-03
DAV:   2    -0.569518583137E+02   -0.17020E-04   -0.18170E-04  2624   0.906E-02    0.687E-03
DAV:   3    -0.569518583107E+02    0.30268E-08   -0.16408E-05  2032   0.787E-02    0.541E-03
DAV:   4    -0.569518580769E+02    0.23375E-06   -0.32378E-06  2016   0.382E-02    0.377E-03
DAV:   5    -0.569518579029E+02    0.17399E-06   -0.99905E-07  2432   0.141E-02    0.297E-03
DAV:   6    -0.569518576732E+02    0.22977E-06   -0.64118E-07  1824   0.205E-02    0.182E-03
DAV:   7    -0.569518575823E+02    0.90862E-07   -0.33615E-07  1088   0.130E-02
  23 F= -.56951858E+02 E0= -.56947029E+02  d E =-.792032E-05
       N       E                     dE             d eps       ncg     rms          rms(c)
DAV:   1    -0.569518452523E+02    0.12421E-04   -0.10269E-02  1872   0.303E-01    0.623E-03
DAV:   2    -0.569518654093E+02   -0.20157E-04   -0.21481E-04  2624   0.981E-02    0.735E-03
DAV:   3    -0.569518654018E+02    0.74397E-08   -0.19103E-05  2032   0.846E-02    0.574E-03
DAV:   4    -0.569518651572E+02    0.24465E-06   -0.38257E-06  2016   0.418E-02    0.397E-03
DAV:   5    -0.569518649847E+02    0.17244E-06   -0.11649E-06  2512   0.152E-02    0.314E-03
DAV:   6    -0.569518647243E+02    0.26046E-06   -0.71042E-07  1840   0.217E-02    0.193E-03
DAV:   7    -0.569518646144E+02    0.10982E-06   -0.36916E-07  1088   0.136E-02    0.111E-03
DAV:   8    -0.569518646181E+02   -0.36634E-08   -0.16988E-07  1072   0.343E-03
  24 F= -.56951865E+02 E0= -.56947030E+02  d E =-.703580E-05
       N       E                     dE             d eps       ncg     rms          rms(c)
DAV:   1    -0.569518495412E+02    0.15073E-04   -0.11416E-02  1872   0.319E-01    0.647E-03
DAV:   2    -0.569518712606E+02   -0.21719E-04   -0.23254E-04  2624   0.104E-01    0.776E-03
DAV:   3    -0.569518712159E+02    0.44773E-07   -0.20636E-05  2048   0.878E-02    0.596E-03
DAV:   4    -0.569518709763E+02    0.23957E-06   -0.40510E-06  2048   0.424E-02    0.414E-03
DAV:   5    -0.569518707992E+02    0.17709E-06   -0.12308E-06  2544   0.167E-02    0.329E-03
DAV:   6    -0.569518705382E+02    0.26103E-06   -0.79885E-07  1872   0.236E-02    0.197E-03
DAV:   7    -0.569518704197E+02    0.11844E-06   -0.42372E-07  1088   0.142E-02    0.110E-03
DAV:   8    -0.569518704241E+02   -0.43183E-08   -0.20111E-07  1056   0.344E-03
  25 F= -.56951870E+02 E0= -.56947027E+02  d E =-.580597E-05
       N       E                     dE             d eps       ncg     rms          rms(c)
DAV:   1    -0.569518512036E+02    0.19216E-04   -0.12447E-02  1856   0.331E-01    0.678E-03
DAV:   2    -0.569518754506E+02   -0.24247E-04   -0.25934E-04  2624   0.108E-01    0.809E-03
DAV:   3    -0.569518754436E+02    0.70904E-08   -0.22503E-05  2032   0.908E-02    0.624E-03
DAV:   4    -0.569518751889E+02    0.25466E-06   -0.45160E-06  2032   0.458E-02    0.432E-03
DAV:   5    -0.569518750002E+02    0.18867E-06   -0.13873E-06  2576   0.178E-02    0.343E-03
DAV:   6    -0.569518747523E+02    0.24792E-06   -0.85379E-07  1888   0.249E-02    0.211E-03
DAV:   7    -0.569518746035E+02    0.14878E-06   -0.46319E-07  1088   0.149E-02    0.111E-03
DAV:   8    -0.569518746140E+02   -0.10452E-07   -0.22005E-07  1104   0.369E-03
  26 F= -.56951875E+02 E0= -.56947025E+02  d E =-.418992E-05
       N       E                     dE             d eps       ncg     rms          rms(c)
DAV:   1    -0.569518557742E+02    0.18829E-04   -0.12039E-02  1872   0.335E-01    0.677E-03
DAV:   2    -0.569518771489E+02   -0.21375E-04   -0.23134E-04  2624   0.104E-01    0.800E-03
DAV:   3    -0.569518770395E+02    0.10942E-06   -0.20838E-05  2000   0.893E-02    0.626E-03
DAV:   4    -0.569518767671E+02    0.27242E-06   -0.40548E-06  2064   0.425E-02    0.440E-03
DAV:   5    -0.569518766288E+02    0.13823E-06   -0.13484E-06  2608   0.175E-02    0.336E-03
DAV:   6    -0.569518763983E+02    0.23058E-06   -0.88814E-07  1904   0.256E-02    0.196E-03
DAV:   7    -0.569518763106E+02    0.87632E-07   -0.46806E-07  1168   0.152E-02
  27 F= -.56951876E+02 E0= -.56947014E+02  d E =-.169664E-05
       N       E                     dE             d eps       ncg     rms          rms(c)
DAV:   1    -0.569518654421E+02    0.10956E-04   -0.51037E-03  1824   0.206E-01    0.515E-03
DAV:   2    -0.569518761371E+02   -0.10695E-04   -0.11209E-04  2624   0.673E-02    0.512E-03
DAV:   3    -0.569518763454E+02   -0.20831E-06   -0.80333E-06  2064   0.541E-02    0.418E-03
DAV:   4    -0.569518761145E+02    0.23096E-06   -0.22593E-06  1968   0.382E-02    0.300E-03
DAV:   5    -0.569518760097E+02    0.10473E-06   -0.50825E-07  1368   0.159E-02    0.216E-03
DAV:   6    -0.569518759435E+02    0.66266E-07   -0.62646E-07  1728   0.174E-02
  28 F= -.56951876E+02 E0= -.56947020E+02  d E =0.367138E-06
       N       E                     dE             d eps       ncg     rms          rms(c)
DAV:   1    -0.569518761985E+02   -0.18871E-06   -0.25616E-05  1824   0.175E-02    0.132E-03
DAV:   2    -0.569518762765E+02   -0.78064E-07   -0.65758E-07  1552   0.186E-02
  29 F= -.56951876E+02 E0= -.56947019E+02  d E =-.333039E-06
       N       E                     dE             d eps       ncg     rms          rms(c)
DAV:   1    -0.569518765331E+02   -0.33462E-06   -0.66722E-05  2112   0.305E-02    0.129E-03
DAV:   2    -0.569518766373E+02   -0.10425E-06   -0.12994E-06  2184   0.684E-03    0.128E-03
DAV:   3    -0.569518766232E+02    0.14101E-07   -0.62149E-08  1056   0.452E-03
  30 F= -.56951877E+02 E0= -.56947018E+02  d E =-.346710E-06
       N       E                     dE             d eps       ncg     rms          rms(c)
DAV:   1    -0.569518768082E+02   -0.17087E-06   -0.12443E-04  1840   0.349E-02    0.145E-03
DAV:   2    -0.569518769545E+02   -0.14634E-06   -0.21598E-06  2672   0.953E-03    0.143E-03
DAV:   3    -0.569518769603E+02   -0.57589E-08   -0.13017E-07   976   0.780E-03
  31 F= -.56951877E+02 E0= -.56947016E+02  d E =-.337066E-06
       N       E                     dE             d eps       ncg     rms          rms(c)
DAV:   1    -0.569518768570E+02    0.97516E-07   -0.15562E-04  1872   0.389E-02    0.149E-03
DAV:   2    -0.569518770894E+02   -0.23242E-06   -0.29247E-06  2624   0.105E-02    0.154E-03
DAV:   3    -0.569518770832E+02    0.62573E-08   -0.10431E-07   960   0.683E-03
  32 F= -.56951877E+02 E0= -.56947014E+02  d E =-.122884E-06
