unknown system                          
           1
     5.147737    0.000000    0.000000
     0.000000    5.147737    0.000000
     0.000000    0.000000   35.260000
   Cu   Ag
    16     1
Direct configuration=     1
   0.25000000  0.25000000  0.99705048
   0.75000000  0.25000000  0.99705048
   0.25000000  0.75000000  0.99705048
   0.75000000  0.75000000  0.99705048
   0.00000000  0.00000000  0.04866704
   0.50000000  0.00000000  0.04866704
   0.00000000  0.50000000  0.04866704
   0.50000000  0.50000000  0.04866704
   0.25018563  0.24989830  0.09971541
   0.75017184  0.25012931  0.10025761
   0.25018430  0.75022066  0.09971646
   0.75016927  0.75000332  0.10025639
   0.99890886  0.00010968  0.15041939
   0.50167256  0.00011262  0.15042966
   0.99613622  0.50010652  0.14992769
   0.50443996  0.50010368  0.14993909
   0.25017064  0.50009198  0.20437962
Direct configuration=     2
   0.25000000  0.25000000  0.99705048
   0.75000000  0.25000000  0.99705048
   0.25000000  0.75000000  0.99705048
   0.75000000  0.75000000  0.99705048
   0.00000000  0.00000000  0.04866704
   0.50000000  0.00000000  0.04866704
   0.00000000  0.50000000  0.04866704
   0.50000000  0.50000000  0.04866704
   0.25018286  0.24951271  0.09971024
   0.75016951  0.25006577  0.10021957
   0.25018174  0.75060503  0.09971118
   0.75016710  0.75006566  0.10021853
   0.99972909  0.00010735  0.15050090
   0.50084289  0.00010977  0.15051035
   0.99221010  0.50010507  0.14914912
   0.50835047  0.50010267  0.14916190
   0.25017599  0.50009061  0.20586848
Direct configuration=     3
   0.25000000  0.25000000  0.99705048
   0.75000000  0.25000000  0.99705048
   0.25000000  0.75000000  0.99705048
   0.75000000  0.75000000  0.99705048
   0.00000000  0.00000000  0.04866704
   0.50000000  0.00000000  0.04866704
   0.00000000  0.50000000  0.04866704
   0.50000000  0.50000000  0.04866704
   0.25017703  0.24858863  0.09967675
   0.75016278  0.24897915  0.10000281
   0.25017626  0.75152665  0.09967741
   0.75016079  0.75114917  0.10000196
   1.00137068  0.00010209  0.15068399
   0.49917685  0.00010347  0.15069177
   0.98891352  0.50010030  0.14830739
   0.51161479  0.50009888  0.14832061
   0.25018414  0.50008984  0.20772921
Direct configuration=     4
   0.25000000  0.25000000  0.99705048
   0.75000000  0.25000000  0.99705048
   0.25000000  0.75000000  0.99705048
   0.75000000  0.75000000  0.99705048
   0.00000000  0.00000000  0.04866704
   0.50000000  0.00000000  0.04866704
   0.00000000  0.50000000  0.04866704
   0.50000000  0.50000000  0.04866704
   0.25016998  0.24783182  0.09961544
   0.75015293  0.24711892  0.09970541
   0.25016935  0.75228034  0.09961589
   0.75015156  0.75300462  0.09970454
   1.00237970  0.00009674  0.15084972
   0.49814206  0.00009731  0.15085560
   0.99124780  0.50009449  0.14837371
   0.50925073  0.50009350  0.14838478
   0.25018631  0.50008902  0.20817650
Direct configuration=     5
   0.25000000  0.25000000  0.99705048
   0.75000000  0.25000000  0.99705048
   0.25000000  0.75000000  0.99705048
   0.75000000  0.75000000  0.99705048
   0.00000000  0.00000000  0.04866704
   0.50000000  0.00000000  0.04866704
   0.00000000  0.50000000  0.04866704
   0.50000000  0.50000000  0.04866704
   0.25015391  0.24728272  0.09954003
   0.75014100  0.24686012  0.09968063
   0.25015364  0.75282337  0.09954032
   0.75014035  0.75325330  0.09968006
   1.00308351  0.00008784  0.15104601
   0.49739778  0.00008729  0.15104947
   0.99236869  0.50008596  0.14829535
   0.50808481  0.50008561  0.14830275
   0.25018065  0.50009244  0.20880485
Direct configuration=     6
   0.25000000  0.25000000  0.99705048
   0.75000000  0.25000000  0.99705048
   0.25000000  0.75000000  0.99705048
   0.75000000  0.75000000  0.99705048
   0.00000000  0.00000000  0.04866704
   0.50000000  0.00000000  0.04866704
   0.00000000  0.50000000  0.04866704
   0.50000000  0.50000000  0.04866704
   0.25013483  0.24703864  0.09951301
   0.75012892  0.24672999  0.09977492
   0.25013450  0.75305736  0.09951321
   0.75012871  0.75337065  0.09977448
   1.00323054  0.00007929  0.15117337
   0.49720813  0.00007898  0.15117487
   0.99375664  0.50007705  0.14846810
   0.50663978  0.50007665  0.14847302
   0.25018532  0.50008126  0.20898909
Direct configuration=     7
   0.25000000  0.25000000  0.99705048
   0.75000000  0.25000000  0.99705048
   0.25000000  0.75000000  0.99705048
   0.75000000  0.75000000  0.99705048
   0.00000000  0.00000000  0.04866704
   0.50000000  0.00000000  0.04866704
   0.00000000  0.50000000  0.04866704
   0.50000000  0.50000000  0.04866704
   0.25012560  0.24705764  0.09953045
   0.75012167  0.24699209  0.09985823
   0.25012547  0.75303291  0.09953068
   0.75012156  0.75310239  0.09985783
   1.00330447  0.00007513  0.15122505
   0.49711242  0.00007475  0.15122594
   0.99352225  0.50007273  0.14847786
   0.50684831  0.50007234  0.14848101
   0.25018474  0.50007776  0.20915755
Direct configuration=     8
   0.25000000  0.25000000  0.99705048
   0.75000000  0.25000000  0.99705048
   0.25000000  0.75000000  0.99705048
   0.75000000  0.75000000  0.99705048
   0.00000000  0.00000000  0.04866704
   0.50000000  0.00000000  0.04866704
   0.00000000  0.50000000  0.04866704
   0.50000000  0.50000000  0.04866704
   0.25011804  0.24704706  0.09954689
   0.75011609  0.24693188  0.09988693
   0.25011796  0.75303920  0.09954714
   0.75011591  0.75315788  0.09988658
   1.00335263  0.00007153  0.15126547
   0.49704570  0.00007131  0.15126612
   0.99373074  0.50006931  0.14854961
   0.50661800  0.50006884  0.14855153
   0.25018510  0.50007258  0.20922266
Direct configuration=     9
   0.25000000  0.25000000  0.99705048
   0.75000000  0.25000000  0.99705048
   0.25000000  0.75000000  0.99705048
   0.75000000  0.75000000  0.99705048
   0.00000000  0.00000000  0.04866704
   0.50000000  0.00000000  0.04866704
   0.00000000  0.50000000  0.04866704
   0.50000000  0.50000000  0.04866704
   0.25010948  0.24705805  0.09956868
   0.75010961  0.24698013  0.09992998
   0.25010938  0.75302320  0.09956894
   0.75010955  0.75310438  0.09992966
   1.00338792  0.00006770  0.15131028
   0.49698860  0.00006718  0.15131073
   0.99378852  0.50006550  0.14860923
   0.50653735  0.50006494  0.14860974
   0.25018551  0.50006708  0.20931465
Direct configuration=    10
   0.25000000  0.25000000  0.99705048
   0.75000000  0.25000000  0.99705048
   0.25000000  0.75000000  0.99705048
   0.75000000  0.75000000  0.99705048
   0.00000000  0.00000000  0.04866704
   0.50000000  0.00000000  0.04866704
   0.00000000  0.50000000  0.04866704
   0.50000000  0.50000000  0.04866704
   0.25010014  0.24707027  0.09959534
   0.75010218  0.24700925  0.09997210
   0.25010009  0.75300538  0.09959558
   0.75010216  0.75306961  0.09997180
   1.00341283  0.00006304  0.15135880
   0.49693945  0.00006244  0.15135919
   0.99386807  0.50006102  0.14868152
   0.50643379  0.50006050  0.14868079
   0.25018364  0.50006191  0.20940903
Direct configuration=    11
   0.25000000  0.25000000  0.99705048
   0.75000000  0.25000000  0.99705048
   0.25000000  0.75000000  0.99705048
   0.75000000  0.75000000  0.99705048
   0.00000000  0.00000000  0.04866704
   0.50000000  0.00000000  0.04866704
   0.00000000  0.50000000  0.04866704
   0.50000000  0.50000000  0.04866704
   0.25009055  0.24708971  0.09962690
   0.75009382  0.24705953  0.10001773
   0.25009048  0.75297956  0.09962712
   0.75009382  0.75301302  0.10001746
   1.00342572  0.00005777  0.15141036
   0.49689917  0.00005767  0.15141049
   0.99391155  0.50005561  0.14875759
   0.50636361  0.50005523  0.14875574
   0.25017972  0.50005682  0.20951356
Direct configuration=    12
   0.25000000  0.25000000  0.99705048
   0.75000000  0.25000000  0.99705048
   0.25000000  0.75000000  0.99705048
   0.75000000  0.75000000  0.99705048
   0.00000000  0.00000000  0.04866704
   0.50000000  0.00000000  0.04866704
   0.00000000  0.50000000  0.04866704
   0.50000000  0.50000000  0.04866704
   0.25007986  0.24711073  0.09966223
   0.75008526  0.24709746  0.10006264
   0.25007993  0.75295156  0.09966246
   0.75008513  0.75296782  0.10006243
   1.00342735  0.00005184  0.15146385
   0.49686571  0.00005173  0.15146379
   0.99396803  0.50005010  0.14884253
   0.50627939  0.50004986  0.14883976
   0.25017164  0.50005176  0.20962168
Direct configuration=    13
   0.25000000  0.25000000  0.99705048
   0.75000000  0.25000000  0.99705048
   0.25000000  0.75000000  0.99705048
   0.75000000  0.75000000  0.99705048
   0.00000000  0.00000000  0.04866704
   0.50000000  0.00000000  0.04866704
   0.00000000  0.50000000  0.04866704
   0.50000000  0.50000000  0.04866704
   0.25007035  0.24713918  0.09970091
   0.75007553  0.24716743  0.10011211
   0.25007029  0.75291480  0.09970109
   0.75007539  0.75288944  0.10011193
   1.00342038  0.00004585  0.15151928
   0.49683669  0.00004507  0.15151911
   0.99398451  0.50004323  0.14892733
   0.50623351  0.50004289  0.14892375
   0.25015624  0.50004938  0.20973899
Direct configuration=    14
   0.25000000  0.25000000  0.99705048
   0.75000000  0.25000000  0.99705048
   0.25000000  0.75000000  0.99705048
   0.75000000  0.75000000  0.99705048
   0.00000000  0.00000000  0.04866704
   0.50000000  0.00000000  0.04866704
   0.00000000  0.50000000  0.04866704
   0.50000000  0.50000000  0.04866704
   0.25005816  0.24715841  0.09974049
   0.75006560  0.24717656  0.10015502
   0.25005803  0.75288750  0.09974072
   0.75006573  0.75287182  0.10015487
   1.00340965  0.00003688  0.15157403
   0.49680688  0.00003692  0.15157390
   0.99408188  0.50003642  0.14902565
   0.50610133  0.50003629  0.14902227
   0.25014311  0.50004450  0.20984826
Direct configuration=    15
   0.25000000  0.25000000  0.99705048
   0.75000000  0.25000000  0.99705048
   0.25000000  0.75000000  0.99705048
   0.75000000  0.75000000  0.99705048
   0.00000000  0.00000000  0.04866704
   0.50000000  0.00000000  0.04866704
   0.00000000  0.50000000  0.04866704
   0.50000000  0.50000000  0.04866704
   0.25005003  0.24720935  0.09977601
   0.75005133  0.24738441  0.10021459
   0.25005038  0.75282774  0.09977601
   0.75005106  0.75265485  0.10021433
   1.00339120  0.00003058  0.15162216
   0.49678706  0.00003033  0.15162184
   0.99391176  0.50002869  0.14907619
   0.50624602  0.50002814  0.14907120
   0.25012221  0.50004010  0.20996844
Direct configuration=    16
   0.25000000  0.25000000  0.99705048
   0.75000000  0.25000000  0.99705048
   0.25000000  0.75000000  0.99705048
   0.75000000  0.75000000  0.99705048
   0.00000000  0.00000000  0.04866704
   0.50000000  0.00000000  0.04866704
   0.00000000  0.50000000  0.04866704
   0.50000000  0.50000000  0.04866704
   0.25004922  0.24720547  0.09977707
   0.75005145  0.24735879  0.10021302
   0.25004953  0.75283125  0.09977709
   0.75005122  0.75268011  0.10021278
   1.00339149  0.00003024  0.15162371
   0.49678519  0.00002998  0.15162341
   0.99394689  0.50002850  0.14908362
   0.50620918  0.50002795  0.14907883
   0.25012168  0.50003978  0.20996646
Direct configuration=    17
   0.25000000  0.25000000  0.99705048
   0.75000000  0.25000000  0.99705048
   0.25000000  0.75000000  0.99705048
   0.75000000  0.75000000  0.99705048
   0.00000000  0.00000000  0.04866704
   0.50000000  0.00000000  0.04866704
   0.00000000  0.50000000  0.04866704
   0.50000000  0.50000000  0.04866704
   0.25004782  0.24720053  0.09977908
   0.75005138  0.24732389  0.10021150
   0.25004806  0.75283551  0.09977913
   0.75005121  0.75271432  0.10021130
   1.00339145  0.00002964  0.15162666
   0.49678214  0.00002937  0.15162641
   0.99399627  0.50002813  0.14909531
   0.50615663  0.50002758  0.14909085
   0.25012116  0.50003903  0.20996584
Direct configuration=    18
   0.25000000  0.25000000  0.99705048
   0.75000000  0.25000000  0.99705048
   0.25000000  0.75000000  0.99705048
   0.75000000  0.75000000  0.99705048
   0.00000000  0.00000000  0.04866704
   0.50000000  0.00000000  0.04866704
   0.00000000  0.50000000  0.04866704
   0.50000000  0.50000000  0.04866704
   0.25004577  0.24719589  0.09978254
   0.75005085  0.24728756  0.10021143
   0.25004594  0.75283905  0.09978264
   0.75005075  0.75274957  0.10021127
   1.00339093  0.00002876  0.15163167
   0.49677752  0.00002845  0.15163147
   0.99404840  0.50002757  0.14911037
   0.50609987  0.50002699  0.14910625
   0.25012047  0.50003733  0.20996828
Direct configuration=    19
   0.25000000  0.25000000  0.99705048
   0.75000000  0.25000000  0.99705048
   0.25000000  0.75000000  0.99705048
   0.75000000  0.75000000  0.99705048
   0.00000000  0.00000000  0.04866704
   0.50000000  0.00000000  0.04866704
   0.00000000  0.50000000  0.04866704
   0.50000000  0.50000000  0.04866704
   0.25004367  0.24719745  0.09978735
   0.75004932  0.24728130  0.10021592
   0.25004378  0.75283598  0.09978749
   0.75004927  0.75275431  0.10021580
   1.00338830  0.00002760  0.15163916
   0.49677305  0.00002724  0.15163897
   0.99406716  0.50002657  0.14912371
   0.50607467  0.50002607  0.14911996
   0.25011824  0.50003487  0.20997901
Direct configuration=    20
   0.25000000  0.25000000  0.99705048
   0.75000000  0.25000000  0.99705048
   0.25000000  0.75000000  0.99705048
   0.75000000  0.75000000  0.99705048
   0.00000000  0.00000000  0.04866704
   0.50000000  0.00000000  0.04866704
   0.00000000  0.50000000  0.04866704
   0.50000000  0.50000000  0.04866704
   0.25004151  0.24719899  0.09979366
   0.75004712  0.24728301  0.10022288
   0.25004158  0.75283267  0.09979381
   0.75004711  0.75275072  0.10022278
   1.00338682  0.00002623  0.15164733
   0.49676656  0.00002558  0.15164712
   0.99407238  0.50002506  0.14913679
   0.50606275  0.50002470  0.14913323
   0.25011266  0.50003323  0.20999297
Direct configuration=    21
   0.25000000  0.25000000  0.99705048
   0.75000000  0.25000000  0.99705048
   0.25000000  0.75000000  0.99705048
   0.75000000  0.75000000  0.99705048
   0.00000000  0.00000000  0.04866704
   0.50000000  0.00000000  0.04866704
   0.00000000  0.50000000  0.04866704
   0.50000000  0.50000000  0.04866704
   0.25003928  0.24720296  0.09979991
   0.75004468  0.24729022  0.10023028
   0.25003930  0.75282670  0.09980006
   0.75004480  0.75274133  0.10023018
   1.00338387  0.00002448  0.15165649
   0.49676091  0.00002399  0.15165624
   0.99407252  0.50002360  0.14914962
   0.50605638  0.50002306  0.14914604
   0.25010322  0.50003144  0.21001142
Direct configuration=    22
   0.25000000  0.25000000  0.99705048
   0.75000000  0.25000000  0.99705048
   0.25000000  0.75000000  0.99705048
   0.75000000  0.75000000  0.99705048
   0.00000000  0.00000000  0.04866704
   0.50000000  0.00000000  0.04866704
   0.00000000  0.50000000  0.04866704
   0.50000000  0.50000000  0.04866704
   0.25003631  0.24720590  0.09980662
   0.75004190  0.24729639  0.10023814
   0.25003648  0.75282139  0.09980678
   0.75004192  0.75273280  0.10023806
   1.00338087  0.00002227  0.15166642
   0.49675423  0.00002180  0.15166606
   0.99407928  0.50002155  0.14916462
   0.50604092  0.50002132  0.14916159
   0.25009641  0.50003020  0.21002936
Direct configuration=    23
   0.25000000  0.25000000  0.99705048
   0.75000000  0.25000000  0.99705048
   0.25000000  0.75000000  0.99705048
   0.75000000  0.75000000  0.99705048
   0.00000000  0.00000000  0.04866704
   0.50000000  0.00000000  0.04866704
   0.00000000  0.50000000  0.04866704
   0.50000000  0.50000000  0.04866704
   0.25003340  0.24720979  0.09981372
   0.75003776  0.24730686  0.10024705
   0.25003330  0.75281496  0.09981389
   0.75003786  0.75271976  0.10024700
   1.00337657  0.00002035  0.15167670
   0.49674667  0.00002046  0.15167628
   0.99407950  0.50001966  0.14917964
   0.50603025  0.50001936  0.14917675
   0.25009503  0.50002577  0.21005037
Direct configuration=    24
   0.25000000  0.25000000  0.99705048
   0.75000000  0.25000000  0.99705048
   0.25000000  0.75000000  0.99705048
   0.75000000  0.75000000  0.99705048
   0.00000000  0.00000000  0.04866704
   0.50000000  0.00000000  0.04866704
   0.00000000  0.50000000  0.04866704
   0.50000000  0.50000000  0.04866704
   0.25002936  0.24721311  0.09982084
   0.75003417  0.24731254  0.10025545
   0.25002947  0.75280911  0.09982100
   0.75003403  0.75271126  0.10025545
   1.00337183  0.00001842  0.15168706
   0.49673870  0.00001831  0.15168690
   0.99409081  0.50001751  0.14919679
   0.50600931  0.50001752  0.14919360
   0.25009058  0.50002125  0.21007221
Direct configuration=    25
   0.25000000  0.25000000  0.99705048
   0.75000000  0.25000000  0.99705048
   0.25000000  0.75000000  0.99705048
   0.75000000  0.75000000  0.99705048
   0.00000000  0.00000000  0.04866704
   0.50000000  0.00000000  0.04866704
   0.00000000  0.50000000  0.04866704
   0.50000000  0.50000000  0.04866704
   0.25002601  0.24721766  0.09982822
   0.75003055  0.24732877  0.10026553
   0.25002572  0.75280147  0.09982844
   0.75003069  0.75269192  0.10026555
   1.00336581  0.00001603  0.15169769
   0.49672936  0.00001606  0.15169756
   0.99409086  0.50001541  0.14921305
   0.50599838  0.50001515  0.14920985
   0.25008073  0.50001672  0.21009612
Direct configuration=    26
   0.25000000  0.25000000  0.99705048
   0.75000000  0.25000000  0.99705048
   0.25000000  0.75000000  0.99705048
   0.75000000  0.75000000  0.99705048
   0.00000000  0.00000000  0.04866704
   0.50000000  0.00000000  0.04866704
   0.00000000  0.50000000  0.04866704
   0.50000000  0.50000000  0.04866704
   0.25002177  0.24722026  0.09983555
   0.75002631  0.24732383  0.10027327
   0.25002217  0.75279560  0.09983567
   0.75002588  0.75269350  0.10027332
   1.00335994  0.00001361  0.15170829
   0.49671820  0.00001341  0.15170813
   0.99411573  0.50001252  0.14923307
   0.50595952  0.50001266  0.14923050
   0.25007313  0.50001224  0.21011415
Direct configuration=    27
   0.25000000  0.25000000  0.99705048
   0.75000000  0.25000000  0.99705048
   0.25000000  0.75000000  0.99705048
   0.75000000  0.75000000  0.99705048
   0.00000000  0.00000000  0.04866704
   0.50000000  0.00000000  0.04866704
   0.00000000  0.50000000  0.04866704
   0.50000000  0.50000000  0.04866704
   0.25001977  0.24722695  0.09983959
   0.75002261  0.24735896  0.10028150
   0.25001940  0.75278717  0.09983978
   0.75002299  0.75265627  0.10028158
   1.00335632  0.00001181  0.15171381
   0.49671306  0.00001196  0.15171356
   0.99407183  0.50001130  0.14923490
   0.50599785  0.50001146  0.14923210
   0.25006650  0.50000987  0.21013128
Direct configuration=    28
   0.25000000  0.25000000  0.99705048
   0.75000000  0.25000000  0.99705048
   0.25000000  0.75000000  0.99705048
   0.75000000  0.75000000  0.99705048
   0.00000000  0.00000000  0.04866704
   0.50000000  0.00000000  0.04866704
   0.00000000  0.50000000  0.04866704
   0.50000000  0.50000000  0.04866704
   0.25001961  0.24722647  0.09983974
   0.75002256  0.24735591  0.10028133
   0.25001928  0.75278757  0.09983993
   0.75002290  0.75265924  0.10028141
   1.00335624  0.00001176  0.15171402
   0.49671273  0.00001190  0.15171378
   0.99407639  0.50001124  0.14923584
   0.50599289  0.50001139  0.14923307
   0.25006640  0.50000976  0.21013086
Direct configuration=    29
   0.25000000  0.25000000  0.99705048
   0.75000000  0.25000000  0.99705048
   0.25000000  0.75000000  0.99705048
   0.75000000  0.75000000  0.99705048
   0.00000000  0.00000000  0.04866704
   0.50000000  0.00000000  0.04866704
   0.00000000  0.50000000  0.04866704
   0.50000000  0.50000000  0.04866704
   0.25001931  0.24722589  0.09983994
   0.75002242  0.24735175  0.10028113
   0.25001903  0.75278800  0.09984013
   0.75002271  0.75266321  0.10028121
   1.00335613  0.00001165  0.15171446
   0.49671205  0.00001178  0.15171423
   0.99408318  0.50001113  0.14923745
   0.50598532  0.50001124  0.14923473
   0.25006600  0.50000953  0.21013142
Direct configuration=    30
   0.25000000  0.25000000  0.99705048
   0.75000000  0.25000000  0.99705048
   0.25000000  0.75000000  0.99705048
   0.75000000  0.75000000  0.99705048
   0.00000000  0.00000000  0.04866704
   0.50000000  0.00000000  0.04866704
   0.00000000  0.50000000  0.04866704
   0.50000000  0.50000000  0.04866704
   0.25001884  0.24722501  0.09984044
   0.75002219  0.24734614  0.10028106
   0.25001864  0.75278862  0.09984062
   0.75002239  0.75266854  0.10028114
   1.00335569  0.00001146  0.15171512
   0.49671116  0.00001157  0.15171492
   0.99409222  0.50001095  0.14923972
   0.50597506  0.50001100  0.14923707
   0.25006543  0.50000922  0.21013162
Direct configuration=    31
   0.25000000  0.25000000  0.99705048
   0.75000000  0.25000000  0.99705048
   0.25000000  0.75000000  0.99705048
   0.75000000  0.75000000  0.99705048
   0.00000000  0.00000000  0.04866704
   0.50000000  0.00000000  0.04866704
   0.00000000  0.50000000  0.04866704
   0.50000000  0.50000000  0.04866704
   0.25001816  0.24722456  0.09984113
   0.75002169  0.24734285  0.10028144
   0.25001806  0.75278868  0.09984130
   0.75002183  0.75267138  0.10028152
   1.00335481  0.00001117  0.15171626
   0.49670990  0.00001125  0.15171607
   0.99409842  0.50001068  0.14924216
   0.50596708  0.50001066  0.14923958
   0.25006467  0.50000864  0.21013327
Direct configuration=    32
   0.25000000  0.25000000  0.99705048
   0.75000000  0.25000000  0.99705048
   0.25000000  0.75000000  0.99705048
   0.75000000  0.75000000  0.99705048
   0.00000000  0.00000000  0.04866704
   0.50000000  0.00000000  0.04866704
   0.00000000  0.50000000  0.04866704
   0.50000000  0.50000000  0.04866704
   0.25001816  0.24722456  0.09984113
   0.75002169  0.24734285  0.10028144
   0.25001806  0.75278868  0.09984130
   0.75002183  0.75267138  0.10028152
   1.00335481  0.00001117  0.15171626
   0.49670990  0.00001125  0.15171607
   0.99409842  0.50001068  0.14924216
   0.50596708  0.50001066  0.14923958
   0.25006467  0.50000864  0.21013327
