 vasp.6.1.0 28Jan20 (build May 12 2023 01:18:31) complex                        
  
 executed on             LinuxIFC date 2023.06.17  01:38:56
 running on    4 total cores
 distrk:  each k-point on    4 cores,    1 groups
 distr:  one band on NCORE=   4 cores,    1 groups


--------------------------------------------------------------------------------------------------------


 INCAR:
 POTCAR:    PAW_PBE C 08Apr2002                   
 POTCAR:    PAW_PBE O 08Apr2002                   
 POTCAR:    PAW_PBE C 08Apr2002                   
   VRHFIN =C: s2p2                                                                                  
   LEXCH  = PE                                                                                      
   EATOM  =   147.1560 eV,   10.8157 Ry                                                             
                                                                                                    
   TITEL  = PAW_PBE C 08Apr2002                                                                     
   LULTRA =        F    use ultrasoft PP ?                                                          
   IUNSCR =        1    unscreen: 0-lin 1-nonlin 2-no                                               
   RPACOR =    1.200    partial core radius                                                         
   POMASS =   12.011; ZVAL   =    4.000    mass and valenz                                          
   RCORE  =    1.500    outmost cutoff radius                                                       
   RWIGS  =    1.630; RWIGS  =    0.863    wigner-seitz radius (au A)                               
   ENMAX  =  400.000; ENMIN  =  300.000 eV                                                          
   ICORE  =        2    local potential                                                             
   LCOR   =        T    correct aug charges                                                         
   LPAW   =        T    paw PP                                                                      
   EAUG   =  644.873                                                                                
   DEXC   =    0.000                                                                                
   RMAX   =    1.529    core radius for proj-oper                                                   
   RAUG   =    1.300    factor for augmentation sphere                                              
   RDEP   =    1.501    radius for radial grids                                                     
   RDEPT  =    1.300    core radius for aug-charge                                                  
                                                                                                    
   Atomic configuration                                                                             
    4 entries                                                                                       
     n  l   j            E        occ.                                                              
     1  0  0.50      -273.3789   2.0000                                                             
     2  0  0.50       -13.7508   2.0000                                                             
     2  1  0.50        -5.2854   2.0000                                                             
     3  2  1.50        -5.4423   0.0000                                                             
   Description                                                                                      
     l       E           TYP  RCUT    TYP  RCUT                                                     
     0    -13.7508458     23  1.200                                                                 
     0     -8.2022199     23  1.200                                                                 
     1     -5.2854383     23  1.500                                                                 
     1     34.0145650     23  1.500                                                                 
     2     -5.4423304      7  1.500                                                                 
  local pseudopotential read in
  partial core-charges read in
  partial kinetic energy density read in
  atomic valenz-charges read in
  non local Contribution for L=           0  read in
    real space projection operators read in
  non local Contribution for L=           0  read in
    real space projection operators read in
  non local Contribution for L=           1  read in
    real space projection operators read in
  non local Contribution for L=           1  read in
    real space projection operators read in
    PAW grid and wavefunctions read in
 
   number of l-projection  operators is LMAX  =           4
   number of lm-projection operators is LMMAX =           8
 
 POTCAR:    PAW_PBE O 08Apr2002                   
   VRHFIN =O: s2p4                                                                                  
   LEXCH  = PE                                                                                      
   EATOM  =   432.3788 eV,   31.7789 Ry                                                             
                                                                                                    
   TITEL  = PAW_PBE O 08Apr2002                                                                     
   LULTRA =        F    use ultrasoft PP ?                                                          
   IUNSCR =        1    unscreen: 0-lin 1-nonlin 2-no                                               
   RPACOR =    1.200    partial core radius                                                         
   POMASS =   16.000; ZVAL   =    6.000    mass and valenz                                          
   RCORE  =    1.520    outmost cutoff radius                                                       
   RWIGS  =    1.550; RWIGS  =    0.820    wigner-seitz radius (au A)                               
   ENMAX  =  400.000; ENMIN  =  300.000 eV                                                          
   ICORE  =        2    local potential                                                             
   LCOR   =        T    correct aug charges                                                         
   LPAW   =        T    paw PP                                                                      
   EAUG   =  605.392                                                                                
   DEXC   =    0.000                                                                                
   RMAX   =    1.553    core radius for proj-oper                                                   
   RAUG   =    1.300    factor for augmentation sphere                                              
   RDEP   =    1.550    radius for radial grids                                                     
   RDEPT  =    1.329    core radius for aug-charge                                                  
                                                                                                    
   Atomic configuration                                                                             
    4 entries                                                                                       
     n  l   j            E        occ.                                                              
     1  0  0.50      -514.6923   2.0000                                                             
     2  0  0.50       -23.9615   2.0000                                                             
     2  1  0.50        -9.0305   4.0000                                                             
     3  2  1.50        -9.5241   0.0000                                                             
   Description                                                                                      
     l       E           TYP  RCUT    TYP  RCUT                                                     
     0    -23.9615318     23  1.200                                                                 
     0     -9.5240782     23  1.200                                                                 
     1     -9.0304911     23  1.520                                                                 
     1      8.1634956     23  1.520                                                                 
     2     -9.5240782      7  1.500                                                                 
  local pseudopotential read in
  partial core-charges read in
  partial kinetic energy density read in
  kinetic energy density of atom read in
  atomic valenz-charges read in
  non local Contribution for L=           0  read in
    real space projection operators read in
  non local Contribution for L=           0  read in
    real space projection operators read in
  non local Contribution for L=           1  read in
    real space projection operators read in
  non local Contribution for L=           1  read in
    real space projection operators read in
    PAW grid and wavefunctions read in
 
   number of l-projection  operators is LMAX  =           4
   number of lm-projection operators is LMMAX =           8
 
  PAW_PBE C 08Apr2002                   :
 energy of atom  1       EATOM= -147.1560
 kinetic energy error for atom=    0.0438 (will be added to EATOM!!)
  PAW_PBE O 08Apr2002                   :
 energy of atom  2       EATOM= -432.3788
 kinetic energy error for atom=    0.1844 (will be added to EATOM!!)
 
 
 POSCAR:  C  O
  positions in direct lattice
  No initial velocities read in
 exchange correlation table for  LEXCH =        8
   RHO(1)=    0.500       N(1)  =     2000
   RHO(2)=  100.500       N(2)  =     4000

 VTST: version 4.0, (05/15/20)

 CHAIN: initializing optimizer
 
 OPT: Using VASP Dynamics algorithm
 CHAIN: Read ICHAIN            0
 
 POSCAR:  C  O
  positions in direct lattice
  No initial velocities read in
 


--------------------------------------------------------------------------------------------------------


 ion  position               nearest neighbor table
   1  0.000  0.000  0.000-   2 1.13
   2  0.000  0.000  0.113-   1 1.13
 

IMPORTANT INFORMATION: All symmetrisations will be switched off!
NOSYMM: (Re-)initialisation of all symmetry stuff for point group C_1.


----------------------------------------------------------------------------------------

                                     Primitive cell                                     

  volume of cell :    1000.0000

  direct lattice vectors                    reciprocal lattice vectors
    10.000000000  0.000000000  0.000000000     0.100000000  0.000000000  0.000000000
     0.000000000 10.000000000  0.000000000     0.000000000  0.100000000  0.000000000
     0.000000000  0.000000000 10.000000000     0.000000000  0.000000000  0.100000000

  length of vectors
    10.000000000 10.000000000 10.000000000     0.100000000  0.100000000  0.100000000

  position of ions in fractional coordinates (direct lattice)
     0.000000000  0.000000000  0.000000000
     0.000000000  0.000000000  0.112800000

  ion indices of the primitive-cell ions
   primitive index   ion index
                 1           1
                 2           2

----------------------------------------------------------------------------------------

 
 
 KPOINTS: Regular                                 

Automatic generation of k-mesh.
Space group operators:
 irot       det(A)        alpha          n_x          n_y          n_z        tau_x        tau_y        tau_z
    1     1.000000     0.000000     1.000000     0.000000     0.000000     0.000000     0.000000     0.000000
 
 Subroutine IBZKPT returns following result:
 ===========================================
 
 Found      1 irreducible k-points:
 
 Following reciprocal coordinates:
            Coordinates               Weight
  0.000000  0.000000  0.000000      1.000000
 
 Following cartesian coordinates:
            Coordinates               Weight
  0.000000  0.000000  0.000000      1.000000
 
 
 Subroutine IBZKPT_HF returns following result:
 ==============================================
 
 Found      1 k-points in 1st BZ
 the following      1 k-points will be used (e.g. in the exchange kernel)
 Following reciprocal coordinates:   # in IRBZ
  0.000000  0.000000  0.000000    1.00000000   1 t-inv F


--------------------------------------------------------------------------------------------------------




 Dimension of arrays:
   k-points           NKPTS =      1   k-points in BZ     NKDIM =      1   number of bands    NBANDS=      9
   number of dos      NEDOS =    301   number of ions     NIONS =      2
   non local maximal  LDIM  =      4   non local SUM 2l+1 LMDIM =      8
   total plane-waves  NPLWV = 262144
   max r-space proj   IRMAX =      1   max aug-charges    IRDMAX=   3600
   dimension x,y,z NGX =    64 NGY =   64 NGZ =   64
   dimension x,y,z NGXF=   128 NGYF=  128 NGZF=  128
   support grid    NGXF=   128 NGYF=  128 NGZF=  128
   ions per type =               1   1
   NGX,Y,Z   is equivalent  to a cutoff of  10.64, 10.64, 10.64 a.u.
   NGXF,Y,Z  is equivalent  to a cutoff of  21.28, 21.28, 21.28 a.u.

 SYSTEM =  unknown system                          
 POSCAR =   C  O                                   

 Startparameter for this run:
   NWRITE =      2    write-flag & timer
   PREC   = accura    normal or accurate (medium, high low for compatibility)
   ISTART =      0    job   : 0-new  1-cont  2-samecut
   ICHARG =      2    charge: 1-file 2-atom 10-const
   ISPIN  =      1    spin polarized calculation?
   LNONCOLLINEAR =      F non collinear calculations
   LSORBIT =      F    spin-orbit coupling
   INIWAV =      1    electr: 0-lowe 1-rand  2-diag
   LASPH  =      F    aspherical Exc in radial PAW
   METAGGA=      F    non-selfconsistent MetaGGA calc.

 Electronic Relaxation 1
   ENCUT  =  380.0 eV  27.93 Ry    5.28 a.u.  15.89 15.89 15.89*2*pi/ulx,y,z
   ENINI  =  380.0     initial cutoff
   ENAUG  =  644.9 eV  augmentation charge cutoff
   NELM   =    400;   NELMIN=  2; NELMDL= -5     # of ELM steps 
   EDIFF  = 0.1E-06   stopping-criterion for ELM
   LREAL  =      F    real-space projection
   NLSPLINE    = F    spline interpolate recip. space projectors
   LCOMPAT=      F    compatible to vasp.4.4
   GGA_COMPAT  = T    GGA compatible to vasp.4.4-vasp.4.6
   LMAXPAW     = -100 max onsite density
   LMAXMIX     =    2 max onsite mixed and CHGCAR
   VOSKOWN=      0    Vosko Wilk Nusair interpolation
   ROPT   =    0.00000   0.00000
 Ionic relaxation
   EDIFFG = 0.1E-05   stopping-criterion for IOM
   NSW    =     61    number of steps for IOM
   NBLOCK =      1;   KBLOCK =     61    inner block; outer block 
   IBRION =      5    ionic relax: 0-MD 1-quasi-New 2-CG
   NFREE  =      2    steps in history (QN), initial steepest desc. (CG)
   ISIF   =      2    stress and relaxation
   IWAVPR =     11    prediction:  0-non 1-charg 2-wave 3-comb
   ISYM   =      0    0-nonsym 1-usesym 2-fastsym
   LCORR  =      T    Harris-Foulkes like correction to forces

   POTIM  = 0.0400    time-step for ionic-motion
   TEIN   =    0.0    initial temperature
   TEBEG  =    0.0;   TEEND  =   0.0 temperature during run
   SMASS  =  -3.00    Nose mass-parameter (am)
   estimated Nose-frequenzy (Omega)   =  0.10E-29 period in steps = 0.16E+48 mass=  -0.229E-26a.u.
   SCALEE = 1.0000    scale energy and forces
   NPACO  =    256;   APACO  = 16.0  distance and # of slots for P.C.
   PSTRESS=    0.0 pullay stress

  Mass of Ions in am
   POMASS =  12.01 16.00
  Ionic Valenz
   ZVAL   =   4.00  6.00
  Atomic Wigner-Seitz radii
   RWIGS  =  -1.00 -1.00
  virtual crystal weights 
   VCA    =   1.00  1.00
   NELECT =      10.0000    total number of electrons
   NUPDOWN=      -1.0000    fix difference up-down

 DOS related values:
   EMIN   =  10.00;   EMAX   =-10.00  energy-range for DOS
   EFERMI =   0.00
   ISMEAR =     0;   SIGMA  =   0.10  broadening in eV -4-tet -1-fermi 0-gaus

 Electronic relaxation 2 (details)
   IALGO  =     38    algorithm
   LDIAG  =      T    sub-space diagonalisation (order eigenvalues)
   LSUBROT=      F    optimize rotation matrix (better conditioning)
   TURBO    =      0    0=normal 1=particle mesh
   IRESTART =      0    0=no restart 2=restart with 2 vectors
   NREBOOT  =      0    no. of reboots
   NMIN     =      0    reboot dimension
   EREF     =   0.00    reference energy to select bands
   IMIX   =      4    mixing-type and parameters
     AMIX     =   0.40;   BMIX     =  1.00
     AMIX_MAG =   1.60;   BMIX_MAG =  1.00
     AMIN     =   0.10
     WC   =   100.;   INIMIX=   1;  MIXPRE=   1;  MAXMIX= -45

 Intra band minimization:
   WEIMIN = 0.0010     energy-eigenvalue tresh-hold
   EBREAK =  0.28E-08  absolut break condition
   DEPER  =   0.30     relativ break condition  

   TIME   =   0.40     timestep for ELM

  volume/ion in A,a.u.               =     500.00      3374.17
  Fermi-wavevector in a.u.,A,eV,Ry     =   0.352702  0.666511  1.692549  0.124399
  Thomas-Fermi vector in A             =   1.266362
 
 Write flags
   LWAVE        =      T    write WAVECAR
   LDOWNSAMPLE  =      F    k-point downsampling of WAVECAR
   LCHARG       =      T    write CHGCAR
   LVTOT        =      F    write LOCPOT, total local potential
   LVHAR        =      F    write LOCPOT, Hartree potential only
   LELF         =      F    write electronic localiz. function (ELF)
   LORBIT       =      0    0 simple, 1 ext, 2 COOP (PROOUT), +10 PAW based schemes


 Dipole corrections
   LMONO  =      F    monopole corrections only (constant potential shift)
   LDIPOL =      F    correct potential (dipole corrections)
   IDIPOL =      0    1-x, 2-y, 3-z, 4-all directions 
   EPSILON=  1.0000000 bulk dielectric constant

 Exchange correlation treatment:
   GGA     =    --    GGA type
   LEXCH   =     8    internal setting for exchange type
   VOSKOWN=      0    Vosko Wilk Nusair interpolation
   LHFCALC =     F    Hartree Fock is set to
   LHFONE  =     F    Hartree Fock one center treatment
   AEXX    =    0.0000 exact exchange contribution

 Linear response parameters
   LEPSILON=     F    determine dielectric tensor
   LRPA    =     F    only Hartree local field effects (RPA)
   LNABLA  =     F    use nabla operator in PAW spheres
   LVEL    =     F    velocity operator in full k-point grid
   LINTERFAST=   F  fast interpolation
   KINTER  =     0    interpolate to denser k-point grid
   CSHIFT  =0.1000    complex shift for real part using Kramers Kronig
   OMEGAMAX=  -1.0    maximum frequency
   DEG_THRESHOLD= 0.2000000E-02 threshold for treating states as degnerate
   RTIME   =   -0.100 relaxation time in fs
  (WPLASMAI=    0.000 imaginary part of plasma frequency in eV, 0.658/RTIME)
   DFIELD  = 0.0000000 0.0000000 0.0000000 field for delta impulse in time
 
 Orbital magnetization related:
   ORBITALMAG=     F  switch on orbital magnetization
   LCHIMAG   =     F  perturbation theory with respect to B field
   DQ        =  0.001000  dq finite difference perturbation B field
   LLRAUG    =     F  two centre corrections for induced B field



--------------------------------------------------------------------------------------------------------


 finite differences
 charge density and potential will be updated during run
 non-spin polarized calculation
 Variant of blocked Davidson
 Davidson routine will perform the subspace rotation
 perform sub-space diagonalisation
    after iterative eigenvector-optimisation
 modified Broyden-mixing scheme, WC =      100.0
 initial mixing is a Kerker type mixing with AMIX =  0.4000 and BMIX =      1.0000
 Hartree-type preconditioning will be used
 using additional bands            4
 reciprocal scheme for non local part
 use partial core corrections
 calculate Harris-corrections to forces 
   (improved forces if not selfconsistent)
 use gradient corrections 
 use of overlap-Matrix (Vanderbilt PP)
 Gauss-broadening in eV      SIGMA  =   0.10


--------------------------------------------------------------------------------------------------------


  energy-cutoff  :      380.00
  volume of cell :     1000.00
      direct lattice vectors                 reciprocal lattice vectors
    10.000000000  0.000000000  0.000000000     0.100000000  0.000000000  0.000000000
     0.000000000 10.000000000  0.000000000     0.000000000  0.100000000  0.000000000
     0.000000000  0.000000000 10.000000000     0.000000000  0.000000000  0.100000000

  length of vectors
    10.000000000 10.000000000 10.000000000     0.100000000  0.100000000  0.100000000


 
 k-points in units of 2pi/SCALE and weight: Regular                                 
   0.00000000  0.00000000  0.00000000       1.000
 
 k-points in reciprocal lattice and weights: Regular                                 
   0.00000000  0.00000000  0.00000000       1.000
 
 position of ions in fractional coordinates (direct lattice) 
   0.00000000  0.00000000  0.00000000
   0.00000000  0.00000000  0.11280000
 
 position of ions in cartesian coordinates  (Angst):
   0.00000000  0.00000000  0.00000000
   0.00000000  0.00000000  1.12800000
 


--------------------------------------------------------------------------------------------------------


 k-point   1 :   0.0000 0.0000 0.0000  plane waves:   16831

 maximum and minimum number of plane-waves per node :      4221     4200

 maximum number of plane-waves:     16831
 maximum index in each direction: 
   IXMAX=   15   IYMAX=   15   IZMAX=   15
   IXMIN=  -15   IYMIN=  -15   IZMIN=  -15


 parallel 3D FFT for wavefunctions:
    minimum data exchange during FFTs selected (reduces bandwidth)
 parallel 3D FFT for charge:
    minimum data exchange during FFTs selected (reduces bandwidth)


 total amount of memory used by VASP MPI-rank0    83405. kBytes
=======================================================================

   base      :      30000. kBytes
   nonl-proj :        675. kBytes
   fftplans  :      19794. kBytes
   grid      :      32325. kBytes
   one-center:          3. kBytes
   wavefun   :        608. kBytes
 
     INWAV:  cpu time    0.0000: real time    0.0002
 Broyden mixing: mesh for mixing (old mesh)
   NGX = 31   NGY = 31   NGZ = 31
  (NGX  =128   NGY  =128   NGZ  =128)
  gives a total of  29791 points

 initial charge density was supplied:
 charge density of overlapping atoms calculated
 number of electron      10.0000000 magnetization 
 keeping initial charge density in first step


--------------------------------------------------------------------------------------------------------


 Maximum index for augmentation-charges          838 (set IRDMAX)


--------------------------------------------------------------------------------------------------------


 First call to EWALD:  gamma=   0.177
 Maximum number of real-space cells 3x 3x 3
 Maximum number of reciprocal cells 3x 3x 3

    FEWALD:  cpu time    0.0016: real time    0.0099


--------------------------------------- Iteration      1(   1)  ---------------------------------------


    POTLOK:  cpu time    0.2440: real time    0.3330
    SETDIJ:  cpu time    0.0021: real time    0.0663
     EDDAV:  cpu time    0.0694: real time    0.3275
       DOS:  cpu time    0.0010: real time    0.0360
    --------------------------------------------
      LOOP:  cpu time    0.3165: real time    0.7628

 eigenvalue-minimisations  :    18
 total energy-change (2. order) : 0.8875654E+02  (-0.1996830E+03)
 number of electron      10.0000000 magnetization 
 augmentation part       10.0000000 magnetization 

 Free energy of the ion-electron system (eV)
  ---------------------------------------------------
  alpha Z        PSCENC =         0.43695755
  Ewald energy   TEWEN  =       103.03445055
  -Hartree energ DENC   =      -562.86072560
  -exchange      EXHF   =         0.00000000
  -V(xc)+E(xc)   XCENC  =        39.26983390
  PAW double counting   =       455.07152327     -457.43959975
  entropy T*S    EENTRO =        -0.00000000
  eigenvalues    EBANDS =       -68.06245666
  atomic energy  EATOM  =       579.30655495
  Solvation  Ediel_sol  =         0.00000000
  ---------------------------------------------------
  free energy    TOTEN  =        88.75653823 eV

  energy without entropy =       88.75653823  energy(sigma->0) =       88.75653823


--------------------------------------------------------------------------------------------------------




--------------------------------------- Iteration      1(   2)  ---------------------------------------


     EDDAV:  cpu time    0.0975: real time    0.1037
       DOS:  cpu time    0.0005: real time    0.0004
    --------------------------------------------
      LOOP:  cpu time    0.0980: real time    0.1041

 eigenvalue-minimisations  :    35
 total energy-change (2. order) :-0.8441411E+02  (-0.8429332E+02)
 number of electron      10.0000000 magnetization 
 augmentation part       10.0000000 magnetization 

 Free energy of the ion-electron system (eV)
  ---------------------------------------------------
  alpha Z        PSCENC =         0.43695755
  Ewald energy   TEWEN  =       103.03445055
  -Hartree energ DENC   =      -562.86072560
  -exchange      EXHF   =         0.00000000
  -V(xc)+E(xc)   XCENC  =        39.26983390
  PAW double counting   =       455.07152327     -457.43959975
  entropy T*S    EENTRO =        -0.00000000
  eigenvalues    EBANDS =      -152.47656279
  atomic energy  EATOM  =       579.30655495
  Solvation  Ediel_sol  =         0.00000000
  ---------------------------------------------------
  free energy    TOTEN  =         4.34243209 eV

  energy without entropy =        4.34243209  energy(sigma->0) =        4.34243209


--------------------------------------------------------------------------------------------------------




--------------------------------------- Iteration      1(   3)  ---------------------------------------


     EDDAV:  cpu time    0.0998: real time    0.1000
       DOS:  cpu time    0.0004: real time    0.0004
    --------------------------------------------
      LOOP:  cpu time    0.1003: real time    0.1005

 eigenvalue-minimisations  :    36
 total energy-change (2. order) :-0.1969517E+02  (-0.1969317E+02)
 number of electron      10.0000000 magnetization 
 augmentation part       10.0000000 magnetization 

 Free energy of the ion-electron system (eV)
  ---------------------------------------------------
  alpha Z        PSCENC =         0.43695755
  Ewald energy   TEWEN  =       103.03445055
  -Hartree energ DENC   =      -562.86072560
  -exchange      EXHF   =         0.00000000
  -V(xc)+E(xc)   XCENC  =        39.26983390
  PAW double counting   =       455.07152327     -457.43959975
  entropy T*S    EENTRO =        -0.00000000
  eigenvalues    EBANDS =      -172.17172786
  atomic energy  EATOM  =       579.30655495
  Solvation  Ediel_sol  =         0.00000000
  ---------------------------------------------------
  free energy    TOTEN  =       -15.35273298 eV

  energy without entropy =      -15.35273298  energy(sigma->0) =      -15.35273298


--------------------------------------------------------------------------------------------------------




--------------------------------------- Iteration      1(   4)  ---------------------------------------


     EDDAV:  cpu time    0.0825: real time    0.0827
       DOS:  cpu time    0.0004: real time    0.0004
    --------------------------------------------
      LOOP:  cpu time    0.0830: real time    0.0832

 eigenvalue-minimisations  :    28
 total energy-change (2. order) :-0.2730324E+00  (-0.2730302E+00)
 number of electron      10.0000000 magnetization 
 augmentation part       10.0000000 magnetization 

 Free energy of the ion-electron system (eV)
  ---------------------------------------------------
  alpha Z        PSCENC =         0.43695755
  Ewald energy   TEWEN  =       103.03445055
  -Hartree energ DENC   =      -562.86072560
  -exchange      EXHF   =         0.00000000
  -V(xc)+E(xc)   XCENC  =        39.26983390
  PAW double counting   =       455.07152327     -457.43959975
  entropy T*S    EENTRO =        -0.00000000
  eigenvalues    EBANDS =      -172.44476028
  atomic energy  EATOM  =       579.30655495
  Solvation  Ediel_sol  =         0.00000000
  ---------------------------------------------------
  free energy    TOTEN  =       -15.62576539 eV

  energy without entropy =      -15.62576539  energy(sigma->0) =      -15.62576539


--------------------------------------------------------------------------------------------------------




--------------------------------------- Iteration      1(   5)  ---------------------------------------


     EDDAV:  cpu time    0.0807: real time    0.0808
       DOS:  cpu time    0.0005: real time    0.0004
    CHARGE:  cpu time    0.0199: real time    0.0461
    MIXING:  cpu time    0.0072: real time    0.0505
    --------------------------------------------
      LOOP:  cpu time    0.1083: real time    0.1779

 eigenvalue-minimisations  :    27
 total energy-change (2. order) :-0.2132383E-03  (-0.2132382E-03)
 number of electron      10.0000004 magnetization 
 augmentation part        0.7251977 magnetization 

 Broyden mixing:
  rms(total) = 0.70512E+00    rms(broyden)= 0.70360E+00
  rms(prec ) = 0.83291E+00
  weight for this iteration     100.00

 Free energy of the ion-electron system (eV)
  ---------------------------------------------------
  alpha Z        PSCENC =         0.43695755
  Ewald energy   TEWEN  =       103.03445055
  -Hartree energ DENC   =      -562.86072560
  -exchange      EXHF   =         0.00000000
  -V(xc)+E(xc)   XCENC  =        39.26983390
  PAW double counting   =       455.07152327     -457.43959975
  entropy T*S    EENTRO =        -0.00000000
  eigenvalues    EBANDS =      -172.44497352
  atomic energy  EATOM  =       579.30655495
  Solvation  Ediel_sol  =         0.00000000
  ---------------------------------------------------
  free energy    TOTEN  =       -15.62597863 eV

  energy without entropy =      -15.62597863  energy(sigma->0) =      -15.62597863


--------------------------------------------------------------------------------------------------------




--------------------------------------- Iteration      1(   6)  ---------------------------------------


    POTLOK:  cpu time    0.2394: real time    0.2464
    SETDIJ:  cpu time    0.0011: real time    0.0011
     EDDAV:  cpu time    0.0599: real time    0.0599
       DOS:  cpu time    0.0004: real time    0.0004
    CHARGE:  cpu time    0.0181: real time    0.0193
    MIXING:  cpu time    0.0066: real time    0.0065
    --------------------------------------------
      LOOP:  cpu time    0.3254: real time    0.3336

 eigenvalue-minimisations  :    18
 total energy-change (2. order) : 0.6729078E+00  (-0.3180061E+00)
 number of electron      10.0000001 magnetization 
 augmentation part        0.6513166 magnetization 

 Broyden mixing:
  rms(total) = 0.37957E+00    rms(broyden)= 0.37913E+00
  rms(prec ) = 0.43226E+00
  weight for this iteration     100.00

 eigenvalues of (default mixing * dielectric matrix)
  average eigenvalue GAMMA=   1.1528
  1.1528

 Free energy of the ion-electron system (eV)
  ---------------------------------------------------
  alpha Z        PSCENC =         0.43695755
  Ewald energy   TEWEN  =       103.03445055
  -Hartree energ DENC   =      -576.93414388
  -exchange      EXHF   =         0.00000000
  -V(xc)+E(xc)   XCENC  =        40.08763432
  PAW double counting   =       611.01669747     -613.53609294
  entropy T*S    EENTRO =        -0.00000000
  eigenvalues    EBANDS =      -158.36512882
  atomic energy  EATOM  =       579.30655495
  Solvation  Ediel_sol  =         0.00000000
  ---------------------------------------------------
  free energy    TOTEN  =       -14.95307079 eV

  energy without entropy =      -14.95307079  energy(sigma->0) =      -14.95307079


--------------------------------------------------------------------------------------------------------




--------------------------------------- Iteration      1(   7)  ---------------------------------------


    POTLOK:  cpu time    0.2443: real time    0.2510
    SETDIJ:  cpu time    0.0013: real time    0.0013
     EDDAV:  cpu time    0.0795: real time    0.0795
       DOS:  cpu time    0.0002: real time    0.0002
    CHARGE:  cpu time    0.0186: real time    0.0199
    MIXING:  cpu time    0.0066: real time    0.0066
    --------------------------------------------
      LOOP:  cpu time    0.3504: real time    0.3584

 eigenvalue-minimisations  :    27
 total energy-change (2. order) : 0.1345217E+00  (-0.6459754E-01)
 number of electron      10.0000002 magnetization 
 augmentation part        0.6697192 magnetization 

 Broyden mixing:
  rms(total) = 0.19206E+00    rms(broyden)= 0.19204E+00
  rms(prec ) = 0.21668E+00
  weight for this iteration     100.00

 eigenvalues of (default mixing * dielectric matrix)
  average eigenvalue GAMMA=   1.4745
  0.7722  2.1769

 Free energy of the ion-electron system (eV)
  ---------------------------------------------------
  alpha Z        PSCENC =         0.43695755
  Ewald energy   TEWEN  =       103.03445055
  -Hartree energ DENC   =      -579.45200370
  -exchange      EXHF   =         0.00000000
  -V(xc)+E(xc)   XCENC  =        40.25212048
  PAW double counting   =       724.70334802     -727.18772406
  entropy T*S    EENTRO =        -0.00000000
  eigenvalues    EBANDS =      -155.91225283
  atomic energy  EATOM  =       579.30655495
  Solvation  Ediel_sol  =         0.00000000
  ---------------------------------------------------
  free energy    TOTEN  =       -14.81854904 eV

  energy without entropy =      -14.81854904  energy(sigma->0) =      -14.81854904


--------------------------------------------------------------------------------------------------------




--------------------------------------- Iteration      1(   8)  ---------------------------------------


    POTLOK:  cpu time    0.2371: real time    0.2437
    SETDIJ:  cpu time    0.0011: real time    0.0011
     EDDAV:  cpu time    0.0599: real time    0.0598
       DOS:  cpu time    0.0004: real time    0.0004
    CHARGE:  cpu time    0.0181: real time    0.0193
    MIXING:  cpu time    0.0067: real time    0.0067
    --------------------------------------------
      LOOP:  cpu time    0.3232: real time    0.3310

 eigenvalue-minimisations  :    18
 total energy-change (2. order) : 0.3362737E-01  (-0.1434562E-01)
 number of electron      10.0000002 magnetization 
 augmentation part        0.6588144 magnetization 

 Broyden mixing:
  rms(total) = 0.52063E-01    rms(broyden)= 0.52034E-01
  rms(prec ) = 0.58836E-01
  weight for this iteration     100.00

 eigenvalues of (default mixing * dielectric matrix)
  average eigenvalue GAMMA=   1.6032
  2.5372  1.5222  0.7502

 Free energy of the ion-electron system (eV)
  ---------------------------------------------------
  alpha Z        PSCENC =         0.43695755
  Ewald energy   TEWEN  =       103.03445055
  -Hartree energ DENC   =      -584.00388320
  -exchange      EXHF   =         0.00000000
  -V(xc)+E(xc)   XCENC  =        40.52693625
  PAW double counting   =       860.00912956     -862.49115528
  entropy T*S    EENTRO =        -0.00000000
  eigenvalues    EBANDS =      -151.60391205
  atomic energy  EATOM  =       579.30655495
  Solvation  Ediel_sol  =         0.00000000
  ---------------------------------------------------
  free energy    TOTEN  =       -14.78492167 eV

  energy without entropy =      -14.78492167  energy(sigma->0) =      -14.78492167


--------------------------------------------------------------------------------------------------------




--------------------------------------- Iteration      1(   9)  ---------------------------------------


    POTLOK:  cpu time    0.2329: real time    0.2397
    SETDIJ:  cpu time    0.0011: real time    0.0011
     EDDAV:  cpu time    0.0635: real time    0.0635
       DOS:  cpu time    0.0004: real time    0.0004
    CHARGE:  cpu time    0.0180: real time    0.0193
    MIXING:  cpu time    0.0068: real time    0.0067
    --------------------------------------------
      LOOP:  cpu time    0.3227: real time    0.3307

 eigenvalue-minimisations  :    20
 total energy-change (2. order) : 0.6562817E-03  (-0.7494443E-03)
 number of electron      10.0000002 magnetization 
 augmentation part        0.6570777 magnetization 

 Broyden mixing:
  rms(total) = 0.10048E-01    rms(broyden)= 0.10028E-01
  rms(prec ) = 0.15708E-01
  weight for this iteration     100.00

 eigenvalues of (default mixing * dielectric matrix)
  average eigenvalue GAMMA=   1.4491
  2.3751  1.7336  0.7726  0.9150

 Free energy of the ion-electron system (eV)
  ---------------------------------------------------
  alpha Z        PSCENC =         0.43695755
  Ewald energy   TEWEN  =       103.03445055
  -Hartree energ DENC   =      -583.91471506
  -exchange      EXHF   =         0.00000000
  -V(xc)+E(xc)   XCENC  =        40.52077569
  PAW double counting   =       900.11844434     -902.57349152
  entropy T*S    EENTRO =        -0.00000000
  eigenvalues    EBANDS =      -151.71324190
  atomic energy  EATOM  =       579.30655495
  Solvation  Ediel_sol  =         0.00000000
  ---------------------------------------------------
  free energy    TOTEN  =       -14.78426539 eV

  energy without entropy =      -14.78426539  energy(sigma->0) =      -14.78426539


--------------------------------------------------------------------------------------------------------




--------------------------------------- Iteration      1(  10)  ---------------------------------------


    POTLOK:  cpu time    0.2318: real time    0.2389
    SETDIJ:  cpu time    0.0011: real time    0.0011
     EDDAV:  cpu time    0.0599: real time    0.0599
       DOS:  cpu time    0.0004: real time    0.0004
    CHARGE:  cpu time    0.0180: real time    0.0192
    MIXING:  cpu time    0.0069: real time    0.0069
    --------------------------------------------
      LOOP:  cpu time    0.3182: real time    0.3265

 eigenvalue-minimisations  :    18
 total energy-change (2. order) :-0.6980056E-03  (-0.8963619E-04)
 number of electron      10.0000002 magnetization 
 augmentation part        0.6580851 magnetization 

 Broyden mixing:
  rms(total) = 0.38825E-02    rms(broyden)= 0.38793E-02
  rms(prec ) = 0.93062E-02
  weight for this iteration     100.00

 eigenvalues of (default mixing * dielectric matrix)
  average eigenvalue GAMMA=   1.6368
  0.7667  0.9743  2.3696  2.3696  1.7037

 Free energy of the ion-electron system (eV)
  ---------------------------------------------------
  alpha Z        PSCENC =         0.43695755
  Ewald energy   TEWEN  =       103.03445055
  -Hartree energ DENC   =      -583.77861236
  -exchange      EXHF   =         0.00000000
  -V(xc)+E(xc)   XCENC  =        40.50972556
  PAW double counting   =       897.05820489     -899.50726247
  entropy T*S    EENTRO =        -0.00000000
  eigenvalues    EBANDS =      -151.84498206
  atomic energy  EATOM  =       579.30655495
  Solvation  Ediel_sol  =         0.00000000
  ---------------------------------------------------
  free energy    TOTEN  =       -14.78496339 eV

  energy without entropy =      -14.78496339  energy(sigma->0) =      -14.78496339


--------------------------------------------------------------------------------------------------------




--------------------------------------- Iteration      1(  11)  ---------------------------------------


    POTLOK:  cpu time    0.2278: real time    0.2350
    SETDIJ:  cpu time    0.0011: real time    0.0011
     EDDAV:  cpu time    0.0599: real time    0.0599
       DOS:  cpu time    0.0009: real time    0.0001
    CHARGE:  cpu time    0.0174: real time    0.0194
    MIXING:  cpu time    0.0069: real time    0.0068
    --------------------------------------------
      LOOP:  cpu time    0.3141: real time    0.3224

 eigenvalue-minimisations  :    18
 total energy-change (2. order) :-0.1960722E-02  (-0.6290260E-04)
 number of electron      10.0000002 magnetization 
 augmentation part        0.6582987 magnetization 

 Broyden mixing:
  rms(total) = 0.22651E-02    rms(broyden)= 0.22621E-02
  rms(prec ) = 0.46626E-02
  weight for this iteration     100.00

 eigenvalues of (default mixing * dielectric matrix)
  average eigenvalue GAMMA=   1.6566
  3.0971  2.4091  1.6394  0.7639  1.0151  1.0151

 Free energy of the ion-electron system (eV)
  ---------------------------------------------------
  alpha Z        PSCENC =         0.43695755
  Ewald energy   TEWEN  =       103.03445055
  -Hartree energ DENC   =      -584.13660392
  -exchange      EXHF   =         0.00000000
  -V(xc)+E(xc)   XCENC  =        40.52188351
  PAW double counting   =       895.56983765     -898.01167902
  entropy T*S    EENTRO =        -0.00000000
  eigenvalues    EBANDS =      -151.50832540
  atomic energy  EATOM  =       579.30655495
  Solvation  Ediel_sol  =         0.00000000
  ---------------------------------------------------
  free energy    TOTEN  =       -14.78692411 eV

  energy without entropy =      -14.78692411  energy(sigma->0) =      -14.78692411


--------------------------------------------------------------------------------------------------------




--------------------------------------- Iteration      1(  12)  ---------------------------------------


    POTLOK:  cpu time    0.2268: real time    0.2338
    SETDIJ:  cpu time    0.0011: real time    0.0011
     EDDAV:  cpu time    0.0639: real time    0.0639
       DOS:  cpu time    0.0001: real time    0.0001
    CHARGE:  cpu time    0.0180: real time    0.0192
    MIXING:  cpu time    0.0073: real time    0.0073
    --------------------------------------------
      LOOP:  cpu time    0.3173: real time    0.3254

 eigenvalue-minimisations  :    20
 total energy-change (2. order) :-0.6782001E-03  (-0.8520215E-05)
 number of electron      10.0000002 magnetization 
 augmentation part        0.6580979 magnetization 

 Broyden mixing:
  rms(total) = 0.12782E-02    rms(broyden)= 0.12780E-02
  rms(prec ) = 0.30553E-02
  weight for this iteration     100.00

 eigenvalues of (default mixing * dielectric matrix)
  average eigenvalue GAMMA=   1.8879
  4.0009  2.5170  2.2182  1.7053  0.7645  1.0169  0.9924

 Free energy of the ion-electron system (eV)
  ---------------------------------------------------
  alpha Z        PSCENC =         0.43695755
  Ewald energy   TEWEN  =       103.03445055
  -Hartree energ DENC   =      -584.20125871
  -exchange      EXHF   =         0.00000000
  -V(xc)+E(xc)   XCENC  =        40.52262264
  PAW double counting   =       895.26821190     -897.71027174
  entropy T*S    EENTRO =        -0.00000000
  eigenvalues    EBANDS =      -151.44486945
  atomic energy  EATOM  =       579.30655495
  Solvation  Ediel_sol  =         0.00000000
  ---------------------------------------------------
  free energy    TOTEN  =       -14.78760231 eV

  energy without entropy =      -14.78760231  energy(sigma->0) =      -14.78760231


--------------------------------------------------------------------------------------------------------




--------------------------------------- Iteration      1(  13)  ---------------------------------------


    POTLOK:  cpu time    0.2186: real time    0.2257
    SETDIJ:  cpu time    0.0011: real time    0.0011
     EDDAV:  cpu time    0.0600: real time    0.0600
       DOS:  cpu time    0.0001: real time    0.0001
    CHARGE:  cpu time    0.0182: real time    0.0195
    MIXING:  cpu time    0.0072: real time    0.0072
    --------------------------------------------
      LOOP:  cpu time    0.3053: real time    0.3136

 eigenvalue-minimisations  :    18
 total energy-change (2. order) :-0.1107242E-02  (-0.1707454E-04)
 number of electron      10.0000002 magnetization 
 augmentation part        0.6580049 magnetization 

 Broyden mixing:
  rms(total) = 0.83368E-03    rms(broyden)= 0.83331E-03
  rms(prec ) = 0.14493E-02
  weight for this iteration     100.00

 eigenvalues of (default mixing * dielectric matrix)
  average eigenvalue GAMMA=   2.0085
  5.3367  2.7576  2.4082  1.6584  0.7651  0.9386  1.1018  1.1018

 Free energy of the ion-electron system (eV)
  ---------------------------------------------------
  alpha Z        PSCENC =         0.43695755
  Ewald energy   TEWEN  =       103.03445055
  -Hartree energ DENC   =      -584.27863112
  -exchange      EXHF   =         0.00000000
  -V(xc)+E(xc)   XCENC  =        40.52293981
  PAW double counting   =       895.42592658     -897.87073216
  entropy T*S    EENTRO =        -0.00000000
  eigenvalues    EBANDS =      -151.36617572
  atomic energy  EATOM  =       579.30655495
  Solvation  Ediel_sol  =         0.00000000
  ---------------------------------------------------
  free energy    TOTEN  =       -14.78870956 eV

  energy without entropy =      -14.78870956  energy(sigma->0) =      -14.78870956


--------------------------------------------------------------------------------------------------------




--------------------------------------- Iteration      1(  14)  ---------------------------------------


    POTLOK:  cpu time    0.2140: real time    0.2210
    SETDIJ:  cpu time    0.0011: real time    0.0011
     EDDAV:  cpu time    0.0618: real time    0.0618
       DOS:  cpu time    0.0001: real time    0.0001
    CHARGE:  cpu time    0.0180: real time    0.0193
    MIXING:  cpu time    0.0076: real time    0.0076
    --------------------------------------------
      LOOP:  cpu time    0.3027: real time    0.3109

 eigenvalue-minimisations  :    19
 total energy-change (2. order) :-0.2895118E-03  (-0.2301298E-05)
 number of electron      10.0000002 magnetization 
 augmentation part        0.6580805 magnetization 

 Broyden mixing:
  rms(total) = 0.43765E-03    rms(broyden)= 0.43718E-03
  rms(prec ) = 0.79993E-03
  weight for this iteration     100.00

 eigenvalues of (default mixing * dielectric matrix)
  average eigenvalue GAMMA=   2.2856
  6.7581  3.4108  2.5719  2.3946  1.6557  0.7650  0.9329  1.0404  1.0404

 Free energy of the ion-electron system (eV)
  ---------------------------------------------------
  alpha Z        PSCENC =         0.43695755
  Ewald energy   TEWEN  =       103.03445055
  -Hartree energ DENC   =      -584.27758339
  -exchange      EXHF   =         0.00000000
  -V(xc)+E(xc)   XCENC  =        40.52223929
  PAW double counting   =       895.54452443     -897.98943506
  entropy T*S    EENTRO =        -0.00000000
  eigenvalues    EBANDS =      -151.36670739
  atomic energy  EATOM  =       579.30655495
  Solvation  Ediel_sol  =         0.00000000
  ---------------------------------------------------
  free energy    TOTEN  =       -14.78899907 eV

  energy without entropy =      -14.78899907  energy(sigma->0) =      -14.78899907


--------------------------------------------------------------------------------------------------------




--------------------------------------- Iteration      1(  15)  ---------------------------------------


    POTLOK:  cpu time    0.2164: real time    0.2231
    SETDIJ:  cpu time    0.0013: real time    0.0013
     EDDAV:  cpu time    0.0641: real time    0.0642
       DOS:  cpu time    0.0002: real time    0.0002
    CHARGE:  cpu time    0.0189: real time    0.0202
    MIXING:  cpu time    0.0079: real time    0.0079
    --------------------------------------------
      LOOP:  cpu time    0.3095: real time    0.3167

 eigenvalue-minimisations  :    20
 total energy-change (2. order) :-0.2366496E-03  (-0.1906995E-05)
 number of electron      10.0000002 magnetization 
 augmentation part        0.6580977 magnetization 

 Broyden mixing:
  rms(total) = 0.31938E-03    rms(broyden)= 0.31924E-03
  rms(prec ) = 0.42630E-03
  weight for this iteration     100.00

 eigenvalues of (default mixing * dielectric matrix)
  average eigenvalue GAMMA=   2.3154
  7.4820  3.8151  2.5730  2.4278  1.7080  0.7649  1.2343  1.2343  0.9572  0.9572

 Free energy of the ion-electron system (eV)
  ---------------------------------------------------
  alpha Z        PSCENC =         0.43695755
  Ewald energy   TEWEN  =       103.03445055
  -Hartree energ DENC   =      -584.26488727
  -exchange      EXHF   =         0.00000000
  -V(xc)+E(xc)   XCENC  =        40.52119710
  PAW double counting   =       895.40217311     -897.84614811
  entropy T*S    EENTRO =        -0.00000000
  eigenvalues    EBANDS =      -151.37953360
  atomic energy  EATOM  =       579.30655495
  Solvation  Ediel_sol  =         0.00000000
  ---------------------------------------------------
  free energy    TOTEN  =       -14.78923572 eV

  energy without entropy =      -14.78923572  energy(sigma->0) =      -14.78923572


--------------------------------------------------------------------------------------------------------




--------------------------------------- Iteration      1(  16)  ---------------------------------------


    POTLOK:  cpu time    0.2151: real time    0.2218
    SETDIJ:  cpu time    0.0012: real time    0.0012
     EDDAV:  cpu time    0.0618: real time    0.0618
       DOS:  cpu time    0.0001: real time    0.0001
    CHARGE:  cpu time    0.0171: real time    0.0182
    MIXING:  cpu time    0.0077: real time    0.0077
    --------------------------------------------
      LOOP:  cpu time    0.3021: real time    0.3108

 eigenvalue-minimisations  :    20
 total energy-change (2. order) :-0.3825762E-04  (-0.1913290E-06)
 number of electron      10.0000002 magnetization 
 augmentation part        0.6580613 magnetization 

 Broyden mixing:
  rms(total) = 0.14221E-03    rms(broyden)= 0.14202E-03
  rms(prec ) = 0.20149E-03
  weight for this iteration     100.00

 eigenvalues of (default mixing * dielectric matrix)
  average eigenvalue GAMMA=   2.4706
  8.2641  4.5339  3.0272  2.4623  2.3667  1.6805  0.7649  1.0832  1.0832  0.9554
  0.9554

 Free energy of the ion-electron system (eV)
  ---------------------------------------------------
  alpha Z        PSCENC =         0.43695755
  Ewald energy   TEWEN  =       103.03445055
  -Hartree energ DENC   =      -584.26654103
  -exchange      EXHF   =         0.00000000
  -V(xc)+E(xc)   XCENC  =        40.52133797
  PAW double counting   =       895.39756526     -897.84166989
  entropy T*S    EENTRO =        -0.00000000
  eigenvalues    EBANDS =      -151.37792933
  atomic energy  EATOM  =       579.30655495
  Solvation  Ediel_sol  =         0.00000000
  ---------------------------------------------------
  free energy    TOTEN  =       -14.78927397 eV

  energy without entropy =      -14.78927397  energy(sigma->0) =      -14.78927397


--------------------------------------------------------------------------------------------------------




--------------------------------------- Iteration      1(  17)  ---------------------------------------


    POTLOK:  cpu time    0.2185: real time    0.2256
    SETDIJ:  cpu time    0.0011: real time    0.0011
     EDDAV:  cpu time    0.0617: real time    0.0617
       DOS:  cpu time    0.0001: real time    0.0001
    CHARGE:  cpu time    0.0168: real time    0.0181
    MIXING:  cpu time    0.0078: real time    0.0078
    --------------------------------------------
      LOOP:  cpu time    0.3062: real time    0.3145

 eigenvalue-minimisations  :    20
 total energy-change (2. order) :-0.2237504E-04  (-0.1146808E-06)
 number of electron      10.0000002 magnetization 
 augmentation part        0.6580624 magnetization 

 Broyden mixing:
  rms(total) = 0.11569E-03    rms(broyden)= 0.11567E-03
  rms(prec ) = 0.13628E-03
  weight for this iteration     100.00

 eigenvalues of (default mixing * dielectric matrix)
  average eigenvalue GAMMA=   2.4178
  8.3059  4.7567  3.0165  2.4917  2.3884  1.6093  1.6093  0.7649  1.0855  1.0756
  0.9549  0.9549

 Free energy of the ion-electron system (eV)
  ---------------------------------------------------
  alpha Z        PSCENC =         0.43695755
  Ewald energy   TEWEN  =       103.03445055
  -Hartree energ DENC   =      -584.26014948
  -exchange      EXHF   =         0.00000000
  -V(xc)+E(xc)   XCENC  =        40.52103022
  PAW double counting   =       895.47284048     -897.91691507
  entropy T*S    EENTRO =        -0.00000000
  eigenvalues    EBANDS =      -151.38406555
  atomic energy  EATOM  =       579.30655495
  Solvation  Ediel_sol  =         0.00000000
  ---------------------------------------------------
  free energy    TOTEN  =       -14.78929635 eV

  energy without entropy =      -14.78929635  energy(sigma->0) =      -14.78929635


--------------------------------------------------------------------------------------------------------




--------------------------------------- Iteration      1(  18)  ---------------------------------------


    POTLOK:  cpu time    0.2229: real time    0.2301
    SETDIJ:  cpu time    0.0011: real time    0.0011
     EDDAV:  cpu time    0.0581: real time    0.0580
       DOS:  cpu time    0.0001: real time    0.0001
    CHARGE:  cpu time    0.0171: real time    0.0184
    MIXING:  cpu time    0.0080: real time    0.0080
    --------------------------------------------
      LOOP:  cpu time    0.3074: real time    0.3158

 eigenvalue-minimisations  :    18
 total energy-change (2. order) :-0.3340487E-05  (-0.1431551E-07)
 number of electron      10.0000002 magnetization 
 augmentation part        0.6580664 magnetization 

 Broyden mixing:
  rms(total) = 0.31386E-04    rms(broyden)= 0.31375E-04
  rms(prec ) = 0.40199E-04
  weight for this iteration     100.00

 eigenvalues of (default mixing * dielectric matrix)
  average eigenvalue GAMMA=   2.5008
  8.6785  5.2980  3.6213  2.7460  2.4617  2.2368  1.6636  0.7649  1.0489  1.0489
  1.0418  0.9500  0.9500

 Free energy of the ion-electron system (eV)
  ---------------------------------------------------
  alpha Z        PSCENC =         0.43695755
  Ewald energy   TEWEN  =       103.03445055
  -Hartree energ DENC   =      -584.26226763
  -exchange      EXHF   =         0.00000000
  -V(xc)+E(xc)   XCENC  =        40.52114875
  PAW double counting   =       895.44321973     -897.88734716
  entropy T*S    EENTRO =        -0.00000000
  eigenvalues    EBANDS =      -151.38201643
  atomic energy  EATOM  =       579.30655495
  Solvation  Ediel_sol  =         0.00000000
  ---------------------------------------------------
  free energy    TOTEN  =       -14.78929969 eV

  energy without entropy =      -14.78929969  energy(sigma->0) =      -14.78929969


--------------------------------------------------------------------------------------------------------




--------------------------------------- Iteration      1(  19)  ---------------------------------------


    POTLOK:  cpu time    0.2274: real time    0.2343
    SETDIJ:  cpu time    0.0011: real time    0.0011
     EDDAV:  cpu time    0.0617: real time    0.0617
       DOS:  cpu time    0.0001: real time    0.0001
    CHARGE:  cpu time    0.0170: real time    0.0183
    MIXING:  cpu time    0.0081: real time    0.0081
    --------------------------------------------
      LOOP:  cpu time    0.3155: real time    0.3236

 eigenvalue-minimisations  :    20
 total energy-change (2. order) :-0.1505942E-05  (-0.6530122E-08)
 number of electron      10.0000002 magnetization 
 augmentation part        0.6580698 magnetization 

 Broyden mixing:
  rms(total) = 0.16583E-04    rms(broyden)= 0.16549E-04
  rms(prec ) = 0.21456E-04
  weight for this iteration     100.00

 eigenvalues of (default mixing * dielectric matrix)
  average eigenvalue GAMMA=   2.4614
  8.7406  5.4472  3.7947  2.6896  2.4017  2.4017  1.6039  1.6039  0.7649  1.1338
  1.0085  1.0085  0.9301  0.9301

 Free energy of the ion-electron system (eV)
  ---------------------------------------------------
  alpha Z        PSCENC =         0.43695755
  Ewald energy   TEWEN  =       103.03445055
  -Hartree energ DENC   =      -584.26182554
  -exchange      EXHF   =         0.00000000
  -V(xc)+E(xc)   XCENC  =        40.52112421
  PAW double counting   =       895.43496541     -897.87910293
  entropy T*S    EENTRO =        -0.00000000
  eigenvalues    EBANDS =      -151.38242540
  atomic energy  EATOM  =       579.30655495
  Solvation  Ediel_sol  =         0.00000000
  ---------------------------------------------------
  free energy    TOTEN  =       -14.78930120 eV

  energy without entropy =      -14.78930120  energy(sigma->0) =      -14.78930120


--------------------------------------------------------------------------------------------------------




--------------------------------------- Iteration      1(  20)  ---------------------------------------


    POTLOK:  cpu time    0.2312: real time    0.2382
    SETDIJ:  cpu time    0.0012: real time    0.0011
     EDDAV:  cpu time    0.0619: real time    0.0619
       DOS:  cpu time    0.0009: real time    0.0001
    CHARGE:  cpu time    0.0163: real time    0.0183
    MIXING:  cpu time    0.0084: real time    0.0084
    --------------------------------------------
      LOOP:  cpu time    0.3199: real time    0.3281

 eigenvalue-minimisations  :    20
 total energy-change (2. order) :-0.4307523E-06  (-0.7020091E-09)
 number of electron      10.0000002 magnetization 
 augmentation part        0.6580693 magnetization 

 Broyden mixing:
  rms(total) = 0.81766E-05    rms(broyden)= 0.81754E-05
  rms(prec ) = 0.11251E-04
  weight for this iteration     100.00

 eigenvalues of (default mixing * dielectric matrix)
  average eigenvalue GAMMA=   2.4831
  8.7619  5.5869  4.0336  3.0541  2.4666  2.4004  2.4004  1.6546  0.7649  1.1103
  1.1103  1.0045  1.0045  0.9467  0.9467

 Free energy of the ion-electron system (eV)
  ---------------------------------------------------
  alpha Z        PSCENC =         0.43695755
  Ewald energy   TEWEN  =       103.03445055
  -Hartree energ DENC   =      -584.26158081
  -exchange      EXHF   =         0.00000000
  -V(xc)+E(xc)   XCENC  =        40.52111186
  PAW double counting   =       895.43668935     -897.88081405
  entropy T*S    EENTRO =        -0.00000000
  eigenvalues    EBANDS =      -151.38267102
  atomic energy  EATOM  =       579.30655495
  Solvation  Ediel_sol  =         0.00000000
  ---------------------------------------------------
  free energy    TOTEN  =       -14.78930163 eV

  energy without entropy =      -14.78930163  energy(sigma->0) =      -14.78930163


--------------------------------------------------------------------------------------------------------




--------------------------------------- Iteration      1(  21)  ---------------------------------------


    POTLOK:  cpu time    0.2371: real time    0.2441
    SETDIJ:  cpu time    0.0011: real time    0.0011
     EDDAV:  cpu time    0.0598: real time    0.0598
       DOS:  cpu time    0.0002: real time    0.0001
    CHARGE:  cpu time    0.0171: real time    0.0183
    MIXING:  cpu time    0.0084: real time    0.0084
    --------------------------------------------
      LOOP:  cpu time    0.3236: real time    0.3318

 eigenvalue-minimisations  :    19
 total energy-change (2. order) :-0.3049520E-06  (-0.5237908E-09)
 number of electron      10.0000002 magnetization 
 augmentation part        0.6580679 magnetization 

 Broyden mixing:
  rms(total) = 0.65632E-05    rms(broyden)= 0.65538E-05
  rms(prec ) = 0.84951E-05
  weight for this iteration     100.00

 eigenvalues of (default mixing * dielectric matrix)
  average eigenvalue GAMMA=   2.4754
  8.7655  5.6552  4.2228  3.3434  2.5767  2.4602  2.1338  2.0184  1.6644  0.7649
  1.1214  1.0013  1.0013  0.9531  0.9618  0.9618

 Free energy of the ion-electron system (eV)
  ---------------------------------------------------
  alpha Z        PSCENC =         0.43695755
  Ewald energy   TEWEN  =       103.03445055
  -Hartree energ DENC   =      -584.26186446
  -exchange      EXHF   =         0.00000000
  -V(xc)+E(xc)   XCENC  =        40.52113212
  PAW double counting   =       895.44126699     -897.88539465
  entropy T*S    EENTRO =        -0.00000000
  eigenvalues    EBANDS =      -151.38240498
  atomic energy  EATOM  =       579.30655495
  Solvation  Ediel_sol  =         0.00000000
  ---------------------------------------------------
  free energy    TOTEN  =       -14.78930193 eV

  energy without entropy =      -14.78930193  energy(sigma->0) =      -14.78930193


--------------------------------------------------------------------------------------------------------




--------------------------------------- Iteration      1(  22)  ---------------------------------------


    POTLOK:  cpu time    0.2397: real time    0.2467
    SETDIJ:  cpu time    0.0011: real time    0.0011
     EDDAV:  cpu time    0.0616: real time    0.0616
       DOS:  cpu time    0.0001: real time    0.0001
    --------------------------------------------
      LOOP:  cpu time    0.3025: real time    0.3095

 eigenvalue-minimisations  :    20
 total energy-change (2. order) :-0.9897269E-07  (-0.1115410E-09)
 number of electron      10.0000002 magnetization 
 augmentation part        0.6580679 magnetization 

 Free energy of the ion-electron system (eV)
  ---------------------------------------------------
  alpha Z        PSCENC =         0.43695755
  Ewald energy   TEWEN  =       103.03445055
  -Hartree energ DENC   =      -584.26170994
  -exchange      EXHF   =         0.00000000
  -V(xc)+E(xc)   XCENC  =        40.52112540
  PAW double counting   =       895.43867179     -897.88279769
  entropy T*S    EENTRO =        -0.00000000
  eigenvalues    EBANDS =      -151.38255464
  atomic energy  EATOM  =       579.30655495
  Solvation  Ediel_sol  =         0.00000000
  ---------------------------------------------------
  free energy    TOTEN  =       -14.78930203 eV

  energy without entropy =      -14.78930203  energy(sigma->0) =      -14.78930203


--------------------------------------------------------------------------------------------------------




 average (electrostatic) potential at core
  the test charge radii are     0.6991  0.7215
  (the norm of the test charge is              1.0000)
       1 -61.5483       2 -83.5674
 
 
 
 E-fermi :  -8.3526     XC(G=0):  -0.6521     alpha+bet : -0.1751


 k-point     1 :       0.0000    0.0000    0.0000
  band No.  band energies     occupation 
      1     -29.3757      2.00000
      2     -13.9161      2.00000
      3     -11.7577      2.00000
      4     -11.7577      2.00000
      5      -8.8842      2.00000
      6      -1.8651      0.00000
      7      -1.8651      0.00000
      8      -0.2142      0.00000
      9       1.0580      0.00000


--------------------------------------------------------------------------------------------------------


 soft charge-density along one line, spin component           1
         0         1         2         3         4         5         6         7         8         9
 total charge-density along one line
 
 pseudopotential strength for first ion, spin component:           1
 10.406  13.843   0.000   0.027   0.000  -0.000  -0.088  -0.000
 13.843  18.415   0.000   0.035   0.000  -0.000  -0.116  -0.000
  0.000   0.000  -4.537   0.000   0.000   8.882  -0.000  -0.000
  0.027   0.035   0.000  -4.549   0.000  -0.000   8.892  -0.000
  0.000   0.000   0.000   0.000  -4.537  -0.000  -0.000   8.882
 -0.000  -0.000   8.882  -0.000  -0.000 -19.537   0.000   0.000
 -0.088  -0.116  -0.000   8.892  -0.000   0.000 -19.529   0.000
 -0.000  -0.000  -0.000  -0.000   8.882   0.000   0.000 -19.537
 total augmentation occupancy for first ion, spin component:           1
  7.830  -3.622  -0.000   2.204  -0.000  -0.000   0.396  -0.000
 -3.622   2.072  -0.000  -1.671  -0.000  -0.000  -0.245   0.000
 -0.000  -0.000   0.857   0.000   0.000   0.068   0.000   0.000
  2.204  -1.671   0.000   2.313   0.000   0.000   0.228   0.000
 -0.000  -0.000   0.000   0.000   0.857   0.000   0.000   0.068
 -0.000  -0.000   0.068   0.000   0.000   0.005   0.000   0.000
  0.396  -0.245   0.000   0.228   0.000   0.000   0.030   0.000
 -0.000   0.000   0.000   0.000   0.068   0.000   0.000   0.005


------------------------ aborting loop because EDIFF is reached ----------------------------------------


    CHARGE:  cpu time    0.0172: real time    0.0184
    FORLOC:  cpu time    0.0160: real time    0.0210
    FORNL :  cpu time    0.0040: real time    0.0499
    STRESS:  cpu time    0.0545: real time    0.0792
    FORCOR:  cpu time    0.2622: real time    0.2869
    FORHAR:  cpu time    0.0612: real time    0.0925
    MIXING:  cpu time    0.0089: real time    0.0089
    OFIELD:  cpu time    0.0002: real time    0.0261

  FORCE on cell =-STRESS in cart. coord.  units (eV):
  Direction    XX          YY          ZZ          XY          YZ          ZX
  --------------------------------------------------------------------------------------
  Alpha Z     0.43696     0.43696     0.43696
  Ewald     -68.54822   -68.54822   240.13084     0.00000    -0.00000    -0.00000
  Hartree   158.51500   158.51500   267.23157     0.00000    -0.00000    -0.00000
  E(xc)     -44.10815   -44.10815   -42.99569    -0.00000     0.00000     0.00000
  Local    -226.41061  -226.41061  -615.24989    -0.00000     0.00000     0.00000
  n-local   -18.82449   -18.82449   -30.38508     0.00000     0.00000     0.00000
  augment     6.23525     6.23525     5.64963    -0.00000     0.00000     0.00000
  Kinetic   191.47063   191.47063   176.04594    -0.00000    -0.00000    -0.00000
  Fock        0.00000     0.00000     0.00000     0.00000     0.00000     0.00000
  -------------------------------------------------------------------------------------
  Total      -1.23363    -1.23363     0.86428    -0.00000     0.00000     0.00000
  in kB      -1.97649    -1.97649     1.38473    -0.00000     0.00000     0.00000
  external pressure =       -0.86 kB  Pullay stress =        0.00 kB


 VOLUME and BASIS-vectors are now :
 -----------------------------------------------------------------------------
  energy-cutoff  :      380.00
  volume of cell :     1000.00
      direct lattice vectors                 reciprocal lattice vectors
    10.000000000  0.000000000  0.000000000     0.100000000  0.000000000  0.000000000
     0.000000000 10.000000000  0.000000000     0.000000000  0.100000000  0.000000000
     0.000000000  0.000000000 10.000000000     0.000000000  0.000000000  0.100000000

  length of vectors
    10.000000000 10.000000000 10.000000000     0.100000000  0.100000000  0.100000000


 FORCES acting on ions
    electron-ion (+dipol)            ewald-force                    non-local-force                 convergence-correction
 -----------------------------------------------------------------------------------------------
   0.569E-05 0.480E-05 0.240E+03   -.204E-16 0.757E-17 -.270E+03   -.947E-06 -.795E-06 0.281E+02   -.387E-05 -.328E-05 0.757E-05
   0.493E-05 0.461E-05 -.207E+03   0.339E-17 -.183E-16 0.270E+03   0.159E-05 0.159E-05 -.606E+02   -.584E-05 -.550E-05 -.803E-04
 -----------------------------------------------------------------------------------------------
   0.106E-04 0.941E-05 0.326E+02   -.170E-16 -.108E-16 0.000E+00   0.640E-06 0.799E-06 -.326E+02   -.971E-05 -.878E-05 -.727E-04
 
 
 POSITION                                       TOTAL-FORCE (eV/Angst)
 -----------------------------------------------------------------------------------
      0.00000      0.00000      0.00000         0.000000      0.000000     -1.878991
      0.00000      0.00000      1.12800        -0.000000     -0.000000      1.878991
 -----------------------------------------------------------------------------------
    total drift:                                0.000002      0.000001     -0.000290


--------------------------------------------------------------------------------------------------------



  FREE ENERGIE OF THE ION-ELECTRON SYSTEM (eV)
  ---------------------------------------------------
  free  energy   TOTEN  =       -14.78930203 eV

  energy  without entropy=      -14.78930203  energy(sigma->0) =      -14.78930203
 


--------------------------------------------------------------------------------------------------------


    POTLOK:  cpu time    0.2410: real time    0.2697


--------------------------------------------------------------------------------------------------------


 stress matrix after NEB project (eV)
     -1.23363     -0.00000      0.00000
     -0.00000     -1.23363      0.00000
      0.00000      0.00000      0.86428
  FORCES: max atom, RMS     1.878991    1.878991
  FORCE total and by dimension    2.657295    1.878991
  Stress total and by dimension    1.946964    1.233630
 Finite differences:
   Step               POTIM =   4.000000000000000E-002
   Degrees of freedom DOF   =            6
    WAVPRE:  cpu time    2.9082: real time    3.4434
    FEWALD:  cpu time    0.0002: real time    0.0032
    ORTHCH:  cpu time    0.0013: real time    0.0013
     LOOP+:  cpu time    9.6517: real time   11.2741


--------------------------------------- Iteration      2(   1)  ---------------------------------------


    POTLOK:  cpu time    0.2418: real time    0.2495
    SETDIJ:  cpu time    0.0012: real time    0.0012
     EDDAV:  cpu time    0.0581: real time    0.0581
       DOS:  cpu time    0.0001: real time    0.0001
    CHARGE:  cpu time    0.0176: real time    0.0187
    MIXING:  cpu time    0.0073: real time    0.0074
    --------------------------------------------
      LOOP:  cpu time    0.3261: real time    0.3350

 eigenvalue-minimisations  :    18
 total energy-change (2. order) :-0.2129564E-02  (-0.3075234E+00)
 number of electron      10.0000002 magnetization 
 augmentation part        0.6572919 magnetization 

 Broyden mixing:
  rms(total) = 0.52674E-01    rms(broyden)= 0.51974E-01
  rms(prec ) = 0.60744E-01
  weight for this iteration     100.00

 Free energy of the ion-electron system (eV)
  ---------------------------------------------------
  alpha Z        PSCENC =         0.43695755
  Ewald energy   TEWEN  =       102.84309142
  -Hartree energ DENC   =      -584.14090101
  -exchange      EXHF   =         0.00000000
  -V(xc)+E(xc)   XCENC  =        40.51763496
  PAW double counting   =       895.43912523     -897.88325119
  entropy T*S    EENTRO =        -0.00000000
  eigenvalues    EBANDS =      -151.31064341
  atomic energy  EATOM  =       579.30655495
  Solvation  Ediel_sol  =         0.00000000
  ---------------------------------------------------
  free energy    TOTEN  =       -14.79143150 eV

  energy without entropy =      -14.79143150  energy(sigma->0) =      -14.79143150


--------------------------------------------------------------------------------------------------------




--------------------------------------- Iteration      2(   2)  ---------------------------------------


    POTLOK:  cpu time    0.2226: real time    0.2295
    SETDIJ:  cpu time    0.0012: real time    0.0012
     EDDAV:  cpu time    0.0811: real time    0.0810
       DOS:  cpu time    0.0001: real time    0.0001
    CHARGE:  cpu time    0.0183: real time    0.0195
    MIXING:  cpu time    0.0065: real time    0.0065
    --------------------------------------------
      LOOP:  cpu time    0.3298: real time    0.3378

 eigenvalue-minimisations  :    28
 total energy-change (2. order) : 0.1294622E-02  (-0.2330490E-02)
 number of electron      10.0000002 magnetization 
 augmentation part        0.6576189 magnetization 

 Broyden mixing:
  rms(total) = 0.28218E-01    rms(broyden)= 0.28154E-01
  rms(prec ) = 0.31877E-01
  weight for this iteration     100.00

 eigenvalues of (default mixing * dielectric matrix)
  average eigenvalue GAMMA=   1.9347
  1.9347

 Free energy of the ion-electron system (eV)
  ---------------------------------------------------
  alpha Z        PSCENC =         0.43695755
  Ewald energy   TEWEN  =       102.84309142
  -Hartree energ DENC   =      -584.08722821
  -exchange      EXHF   =         0.00000000
  -V(xc)+E(xc)   XCENC  =        40.51484059
  PAW double counting   =       895.00560503     -897.44829400
  entropy T*S    EENTRO =        -0.00000000
  eigenvalues    EBANDS =      -151.36166421
  atomic energy  EATOM  =       579.30655495
  Solvation  Ediel_sol  =         0.00000000
  ---------------------------------------------------
  free energy    TOTEN  =       -14.79013687 eV

  energy without entropy =      -14.79013687  energy(sigma->0) =      -14.79013687


--------------------------------------------------------------------------------------------------------




--------------------------------------- Iteration      2(   3)  ---------------------------------------


    POTLOK:  cpu time    0.2202: real time    0.2272
    SETDIJ:  cpu time    0.0011: real time    0.0011
     EDDAV:  cpu time    0.0637: real time    0.0637
       DOS:  cpu time    0.0005: real time    0.0004
    CHARGE:  cpu time    0.0181: real time    0.0194
    MIXING:  cpu time    0.0066: real time    0.0066
    --------------------------------------------
      LOOP:  cpu time    0.3110: real time    0.3184

 eigenvalue-minimisations  :    20
 total energy-change (2. order) :-0.2805644E-03  (-0.3455799E-03)
 number of electron      10.0000002 magnetization 
 augmentation part        0.6578305 magnetization 

 Broyden mixing:
  rms(total) = 0.59980E-02    rms(broyden)= 0.59787E-02
  rms(prec ) = 0.70510E-02
  weight for this iteration     100.00

 eigenvalues of (default mixing * dielectric matrix)
  average eigenvalue GAMMA=   1.5965
  1.1272  2.0659

 Free energy of the ion-electron system (eV)
  ---------------------------------------------------
  alpha Z        PSCENC =         0.43695755
  Ewald energy   TEWEN  =       102.84309142
  -Hartree energ DENC   =      -584.10649935
  -exchange      EXHF   =         0.00000000
  -V(xc)+E(xc)   XCENC  =        40.51558732
  PAW double counting   =       894.25199369     -896.69489398
  entropy T*S    EENTRO =        -0.00000000
  eigenvalues    EBANDS =      -151.34320904
  atomic energy  EATOM  =       579.30655495
  Solvation  Ediel_sol  =         0.00000000
  ---------------------------------------------------
  free energy    TOTEN  =       -14.79041744 eV

  energy without entropy =      -14.79041744  energy(sigma->0) =      -14.79041744


--------------------------------------------------------------------------------------------------------




--------------------------------------- Iteration      2(   4)  ---------------------------------------


    POTLOK:  cpu time    0.2203: real time    0.2272
    SETDIJ:  cpu time    0.0011: real time    0.0011
     EDDAV:  cpu time    0.0634: real time    0.0634
       DOS:  cpu time    0.0005: real time    0.0004
    CHARGE:  cpu time    0.0180: real time    0.0193
    MIXING:  cpu time    0.0066: real time    0.0066
    --------------------------------------------
      LOOP:  cpu time    0.3091: real time    0.3180

 eigenvalue-minimisations  :    20
 total energy-change (2. order) :-0.8625795E-04  (-0.2453031E-04)
 number of electron      10.0000002 magnetization 
 augmentation part        0.6576302 magnetization 

 Broyden mixing:
  rms(total) = 0.25935E-02    rms(broyden)= 0.25904E-02
  rms(prec ) = 0.30636E-02
  weight for this iteration     100.00

 eigenvalues of (default mixing * dielectric matrix)
  average eigenvalue GAMMA=   1.6193
  1.0124  2.2565  1.5891

 Free energy of the ion-electron system (eV)
  ---------------------------------------------------
  alpha Z        PSCENC =         0.43695755
  Ewald energy   TEWEN  =       102.84309142
  -Hartree energ DENC   =      -584.12176272
  -exchange      EXHF   =         0.00000000
  -V(xc)+E(xc)   XCENC  =        40.51635120
  PAW double counting   =       894.22198968     -896.66523583
  entropy T*S    EENTRO =        -0.00000000
  eigenvalues    EBANDS =      -151.32844997
  atomic energy  EATOM  =       579.30655495
  Solvation  Ediel_sol  =         0.00000000
  ---------------------------------------------------
  free energy    TOTEN  =       -14.79050370 eV

  energy without entropy =      -14.79050370  energy(sigma->0) =      -14.79050370


--------------------------------------------------------------------------------------------------------




--------------------------------------- Iteration      2(   5)  ---------------------------------------


    POTLOK:  cpu time    0.2206: real time    0.2275
    SETDIJ:  cpu time    0.0011: real time    0.0011
     EDDAV:  cpu time    0.0598: real time    0.0598
       DOS:  cpu time    0.0004: real time    0.0004
    CHARGE:  cpu time    0.0183: real time    0.0194
    MIXING:  cpu time    0.0068: real time    0.0068
    --------------------------------------------
      LOOP:  cpu time    0.3071: real time    0.3151

 eigenvalue-minimisations  :    18
 total energy-change (2. order) :-0.5185719E-04  (-0.2942029E-05)
 number of electron      10.0000002 magnetization 
 augmentation part        0.6577021 magnetization 

 Broyden mixing:
  rms(total) = 0.64777E-03    rms(broyden)= 0.64686E-03
  rms(prec ) = 0.81174E-03
  weight for this iteration     100.00

 eigenvalues of (default mixing * dielectric matrix)
  average eigenvalue GAMMA=   1.5300
  2.5027  1.6248  1.1192  0.8731

 Free energy of the ion-electron system (eV)
  ---------------------------------------------------
  alpha Z        PSCENC =         0.43695755
  Ewald energy   TEWEN  =       102.84309142
  -Hartree energ DENC   =      -584.11022063
  -exchange      EXHF   =         0.00000000
  -V(xc)+E(xc)   XCENC  =        40.51562870
  PAW double counting   =       894.19657329     -896.63959807
  entropy T*S    EENTRO =        -0.00000000
  eigenvalues    EBANDS =      -151.33954276
  atomic energy  EATOM  =       579.30655495
  Solvation  Ediel_sol  =         0.00000000
  ---------------------------------------------------
  free energy    TOTEN  =       -14.79055555 eV

  energy without entropy =      -14.79055555  energy(sigma->0) =      -14.79055555


--------------------------------------------------------------------------------------------------------




--------------------------------------- Iteration      2(   6)  ---------------------------------------


    POTLOK:  cpu time    0.2214: real time    0.2281
    SETDIJ:  cpu time    0.0011: real time    0.0011
     EDDAV:  cpu time    0.0635: real time    0.0635
       DOS:  cpu time    0.0005: real time    0.0004
    CHARGE:  cpu time    0.0181: real time    0.0194
    MIXING:  cpu time    0.0068: real time    0.0068
    --------------------------------------------
      LOOP:  cpu time    0.3113: real time    0.3193

 eigenvalue-minimisations  :    20
 total energy-change (2. order) :-0.1376647E-04  (-0.2109412E-06)
 number of electron      10.0000002 magnetization 
 augmentation part        0.6576787 magnetization 

 Broyden mixing:
  rms(total) = 0.21540E-03    rms(broyden)= 0.21519E-03
  rms(prec ) = 0.33753E-03
  weight for this iteration     100.00

 eigenvalues of (default mixing * dielectric matrix)
  average eigenvalue GAMMA=   1.5612
  2.5951  1.6613  1.6613  1.0218  0.8667

 Free energy of the ion-electron system (eV)
  ---------------------------------------------------
  alpha Z        PSCENC =         0.43695755
  Ewald energy   TEWEN  =       102.84309142
  -Hartree energ DENC   =      -584.11126877
  -exchange      EXHF   =         0.00000000
  -V(xc)+E(xc)   XCENC  =        40.51564606
  PAW double counting   =       894.17396103     -896.61701632
  entropy T*S    EENTRO =        -0.00000000
  eigenvalues    EBANDS =      -151.33849524
  atomic energy  EATOM  =       579.30655495
  Solvation  Ediel_sol  =         0.00000000
  ---------------------------------------------------
  free energy    TOTEN  =       -14.79056932 eV

[...]




--------------------------------------- Iteration     13(  13)  ---------------------------------------


    POTLOK:  cpu time    0.2235: real time    0.2305
    SETDIJ:  cpu time    0.0011: real time    0.0011
     EDDAV:  cpu time    0.0580: real time    0.0580
       DOS:  cpu time    0.0002: real time    0.0002
    CHARGE:  cpu time    0.0171: real time    0.0183
    MIXING:  cpu time    0.0078: real time    0.0078
    --------------------------------------------
      LOOP:  cpu time    0.3077: real time    0.3158

 eigenvalue-minimisations  :    18
 total energy-change (2. order) :-0.8870410E-05  (-0.3851384E-07)
 number of electron      10.0000022 magnetization 
 augmentation part        0.6812339 magnetization 

 Broyden mixing:
  rms(total) = 0.27036E-04    rms(broyden)= 0.27022E-04
  rms(prec ) = 0.33175E-04
  weight for this iteration     100.00

 eigenvalues of (default mixing * dielectric matrix)
  average eigenvalue GAMMA=   2.3222
  8.3600  4.7289  2.6445  2.4784  2.0976  1.6579  0.8675  1.0460  1.0460  0.9394
  0.9394  1.0603

 Free energy of the ion-electron system (eV)
  ---------------------------------------------------
  alpha Z        PSCENC =         0.43695755
  Ewald energy   TEWEN  =       114.23185808
  -Hartree energ DENC   =      -593.10750258
  -exchange      EXHF   =         0.00000000
  -V(xc)+E(xc)   XCENC  =        40.85080065
  PAW double counting   =       971.96742748     -974.48071498
  entropy T*S    EENTRO =        -0.00000000
  eigenvalues    EBANDS =      -153.80802197
  atomic energy  EATOM  =       579.30655495
  Solvation  Ediel_sol  =         0.00000000
  ---------------------------------------------------
  free energy    TOTEN  =       -14.60264082 eV

  energy without entropy =      -14.60264082  energy(sigma->0) =      -14.60264082


--------------------------------------------------------------------------------------------------------




--------------------------------------- Iteration     13(  14)  ---------------------------------------


    POTLOK:  cpu time    0.2268: real time    0.2338
    SETDIJ:  cpu time    0.0011: real time    0.0011
     EDDAV:  cpu time    0.0617: real time    0.0617
       DOS:  cpu time    0.0001: real time    0.0001
    CHARGE:  cpu time    0.0170: real time    0.0182
    MIXING:  cpu time    0.0081: real time    0.0081
    --------------------------------------------
      LOOP:  cpu time    0.3148: real time    0.3231

 eigenvalue-minimisations  :    20
 total energy-change (2. order) :-0.8305958E-06  (-0.9998935E-09)
 number of electron      10.0000022 magnetization 
 augmentation part        0.6812346 magnetization 

 Broyden mixing:
  rms(total) = 0.11056E-04    rms(broyden)= 0.11053E-04
  rms(prec ) = 0.16252E-04
  weight for this iteration     100.00

 eigenvalues of (default mixing * dielectric matrix)
  average eigenvalue GAMMA=   2.4201
  8.6089  5.2627  3.1972  2.6034  2.3441  2.0247  1.6708  0.8631  0.9823  0.9823
  0.9887  0.9887  0.9443

 Free energy of the ion-electron system (eV)
  ---------------------------------------------------
  alpha Z        PSCENC =         0.43695755
  Ewald energy   TEWEN  =       114.23185808
  -Hartree energ DENC   =      -593.10733233
  -exchange      EXHF   =         0.00000000
  -V(xc)+E(xc)   XCENC  =        40.85079129
  PAW double counting   =       971.96340831     -974.47671554
  entropy T*S    EENTRO =        -0.00000000
  eigenvalues    EBANDS =      -153.80816396
  atomic energy  EATOM  =       579.30655495
  Solvation  Ediel_sol  =         0.00000000
  ---------------------------------------------------
  free energy    TOTEN  =       -14.60264165 eV

  energy without entropy =      -14.60264165  energy(sigma->0) =      -14.60264165


--------------------------------------------------------------------------------------------------------




--------------------------------------- Iteration     13(  15)  ---------------------------------------


    POTLOK:  cpu time    0.2346: real time    0.2419
    SETDIJ:  cpu time    0.0011: real time    0.0011
     EDDAV:  cpu time    0.0598: real time    0.0598
       DOS:  cpu time    0.0001: real time    0.0001
    CHARGE:  cpu time    0.0170: real time    0.0182
    MIXING:  cpu time    0.0083: real time    0.0082
    --------------------------------------------
      LOOP:  cpu time    0.3209: real time    0.3293

 eigenvalue-minimisations  :    19
 total energy-change (2. order) :-0.1071537E-05  (-0.2342642E-08)
 number of electron      10.0000022 magnetization 
 augmentation part        0.6812357 magnetization 

 Broyden mixing:
  rms(total) = 0.66446E-05    rms(broyden)= 0.66318E-05
  rms(prec ) = 0.83595E-05
  weight for this iteration     100.00

 eigenvalues of (default mixing * dielectric matrix)
  average eigenvalue GAMMA=   2.3721
  8.6829  5.3861  3.4357  2.5999  2.4766  1.9792  1.6565  1.1697  0.8584  0.9278
  0.9278  1.0576  1.0576  0.9940

 Free energy of the ion-electron system (eV)
  ---------------------------------------------------
  alpha Z        PSCENC =         0.43695755
  Ewald energy   TEWEN  =       114.23185808
  -Hartree energ DENC   =      -593.10700772
  -exchange      EXHF   =         0.00000000
  -V(xc)+E(xc)   XCENC  =        40.85078119
  PAW double counting   =       971.95859026     -974.47191109
  entropy T*S    EENTRO =        -0.00000000
  eigenvalues    EBANDS =      -153.80846594
  atomic energy  EATOM  =       579.30655495
  Solvation  Ediel_sol  =         0.00000000
  ---------------------------------------------------
  free energy    TOTEN  =       -14.60264272 eV

  energy without entropy =      -14.60264272  energy(sigma->0) =      -14.60264272


--------------------------------------------------------------------------------------------------------




--------------------------------------- Iteration     13(  16)  ---------------------------------------


    POTLOK:  cpu time    0.2382: real time    0.2453
    SETDIJ:  cpu time    0.0011: real time    0.0011
     EDDAV:  cpu time    0.0616: real time    0.0616
       DOS:  cpu time    0.0001: real time    0.0001
    CHARGE:  cpu time    0.0170: real time    0.0182
    MIXING:  cpu time    0.0083: real time    0.0083
    --------------------------------------------
      LOOP:  cpu time    0.3265: real time    0.3346

 eigenvalue-minimisations  :    20
 total energy-change (2. order) :-0.1459592E-06  (-0.1192682E-09)
 number of electron      10.0000022 magnetization 
 augmentation part        0.6812355 magnetization 

 Broyden mixing:
  rms(total) = 0.32120E-05    rms(broyden)= 0.32107E-05
  rms(prec ) = 0.42196E-05
  weight for this iteration     100.00

 eigenvalues of (default mixing * dielectric matrix)
  average eigenvalue GAMMA=   2.4117
  8.7293  5.5185  3.8760  2.7111  2.5521  2.5521  1.9013  1.6820  1.0269  1.0269
  0.8589  0.9538  0.9538  0.9164  0.9164

 Free energy of the ion-electron system (eV)
  ---------------------------------------------------
  alpha Z        PSCENC =         0.43695755
  Ewald energy   TEWEN  =       114.23185808
  -Hartree energ DENC   =      -593.10705686
  -exchange      EXHF   =         0.00000000
  -V(xc)+E(xc)   XCENC  =        40.85078365
  PAW double counting   =       971.96049568     -974.47381920
  entropy T*S    EENTRO =        -0.00000000
  eigenvalues    EBANDS =      -153.80841671
  atomic energy  EATOM  =       579.30655495
  Solvation  Ediel_sol  =         0.00000000
  ---------------------------------------------------
  free energy    TOTEN  =       -14.60264287 eV

  energy without entropy =      -14.60264287  energy(sigma->0) =      -14.60264287


--------------------------------------------------------------------------------------------------------




--------------------------------------- Iteration     13(  17)  ---------------------------------------


    POTLOK:  cpu time    0.2404: real time    0.2476
    SETDIJ:  cpu time    0.0011: real time    0.0011
     EDDAV:  cpu time    0.0597: real time    0.0597
       DOS:  cpu time    0.0001: real time    0.0001
    --------------------------------------------
      LOOP:  cpu time    0.3013: real time    0.3085

 eigenvalue-minimisations  :    19
 total energy-change (2. order) :-0.7430674E-07  (-0.5929479E-10)
 number of electron      10.0000022 magnetization 
 augmentation part        0.6812355 magnetization 

 Free energy of the ion-electron system (eV)
  ---------------------------------------------------
  alpha Z        PSCENC =         0.43695755
  Ewald energy   TEWEN  =       114.23185808
  -Hartree energ DENC   =      -593.10713251
  -exchange      EXHF   =         0.00000000
  -V(xc)+E(xc)   XCENC  =        40.85078932
  PAW double counting   =       971.96208653     -974.47541033
  entropy T*S    EENTRO =        -0.00000000
  eigenvalues    EBANDS =      -153.80834653
  atomic energy  EATOM  =       579.30655495
  Solvation  Ediel_sol  =         0.00000000
  ---------------------------------------------------
  free energy    TOTEN  =       -14.60264294 eV

  energy without entropy =      -14.60264294  energy(sigma->0) =      -14.60264294


--------------------------------------------------------------------------------------------------------




 average (electrostatic) potential at core
  the test charge radii are     0.6991  0.7215
  (the norm of the test charge is              1.0000)
       1 -61.4117       2 -83.7709
 
 
 
 E-fermi :  -8.3008     XC(G=0):  -0.6485     alpha+bet : -0.1751


 k-point     1 :       0.0000    0.0000    0.0000
  band No.  band energies     occupation 
      1     -29.9752      2.00000
      2     -13.8879      2.00000
      3     -12.1260      2.00000
      4     -12.1260      2.00000
      5      -8.7890      2.00000
      6      -1.4676      0.00000
      7      -1.4676      0.00000
      8      -0.2108      0.00000
      9       1.0668      0.00000


--------------------------------------------------------------------------------------------------------


 soft charge-density along one line, spin component           1
         0         1         2         3         4         5         6         7         8         9
 total charge-density along one line
 
 pseudopotential strength for first ion, spin component:           1
 10.406  13.843   0.000   0.031  -0.000  -0.000  -0.103   0.000
 13.843  18.415   0.000   0.040  -0.000  -0.000  -0.136   0.000
  0.000   0.000  -4.521   0.000   0.000   8.847  -0.000  -0.000
  0.031   0.040   0.000  -4.546  -0.000  -0.000   8.879   0.000
 -0.000  -0.000   0.000  -0.000  -4.521  -0.000   0.000   8.847
 -0.000  -0.000   8.847  -0.000  -0.000 -19.457   0.000   0.000
 -0.103  -0.136  -0.000   8.879   0.000   0.000 -19.488  -0.000
  0.000   0.000  -0.000   0.000   8.847   0.000  -0.000 -19.457
 total augmentation occupancy for first ion, spin component:           1
  8.849  -4.213   0.000   2.495  -0.000   0.000   0.441  -0.000
 -4.213   2.388  -0.000  -1.840   0.000  -0.000  -0.272   0.000
  0.000  -0.000   0.917   0.000   0.000   0.076   0.000   0.000
  2.495  -1.840   0.000   2.454  -0.000  -0.000   0.241   0.000
 -0.000   0.000   0.000  -0.000   0.917   0.000   0.000   0.076
  0.000  -0.000   0.076  -0.000   0.000   0.006   0.000   0.000
  0.441  -0.272   0.000   0.241   0.000   0.000   0.032  -0.000
 -0.000   0.000   0.000   0.000   0.076   0.000  -0.000   0.006


------------------------ aborting loop because EDIFF is reached ----------------------------------------


    CHARGE:  cpu time    0.0170: real time    0.0183
    FORLOC:  cpu time    0.0159: real time    0.0158
    FORNL :  cpu time    0.0035: real time    0.0035
    STRESS:  cpu time    0.0535: real time    0.0535
    FORCOR:  cpu time    0.2615: real time    0.2670
    FORHAR:  cpu time    0.0607: real time    0.0623
    MIXING:  cpu time    0.0077: real time    0.0085
    OFIELD:  cpu time    0.0001: real time    0.0001

  FORCE on cell =-STRESS in cart. coord.  units (eV):
  Direction    XX          YY          ZZ          XY          YZ          ZX
  --------------------------------------------------------------------------------------
  Alpha Z     0.43696     0.43696     0.43696
  Ewald     -68.51786   -68.51786   251.26753    -0.00000    -0.00000    -0.00000
  Hartree   161.88990   161.88990   269.32721    -0.00000    -0.00000    -0.00000
  E(xc)     -44.45685   -44.45685   -43.33842     0.00000     0.00000     0.00000
  Local    -230.75969  -230.75969  -622.96254     0.00000     0.00000    -0.00000
  n-local   -19.38530   -19.38530   -31.52129     0.00000     0.00000     0.00000
  augment     6.31344     6.31344     5.33551     0.00000     0.00000    -0.00000
  Kinetic   193.24932   193.24932   178.60473     0.00000    -0.00000     0.00000
  Fock        0.00000     0.00000     0.00000     0.00000     0.00000     0.00000
  -------------------------------------------------------------------------------------
  Total      -1.23008    -1.23008     7.14970     0.00000     0.00000    -0.00000
  in kB      -1.97081    -1.97081    11.45509     0.00000     0.00000    -0.00000
  external pressure =        2.50 kB  Pullay stress =        0.00 kB


 VOLUME and BASIS-vectors are now :
 -----------------------------------------------------------------------------
  energy-cutoff  :      380.00
  volume of cell :     1000.00
      direct lattice vectors                 reciprocal lattice vectors
    10.000000000  0.000000000  0.000000000     0.100000000  0.000000000  0.000000000
     0.000000000 10.000000000  0.000000000     0.000000000  0.100000000  0.000000000
     0.000000000  0.000000000 10.000000000     0.000000000  0.000000000  0.100000000

  length of vectors
    10.000000000 10.000000000 10.000000000     0.100000000  0.100000000  0.100000000


 FORCES acting on ions
    electron-ion (+dipol)            ewald-force                    non-local-force                 convergence-correction
 -----------------------------------------------------------------------------------------------
   -.867E-13 0.199E-06 0.255E+03   -.174E-16 0.400E-16 -.290E+03   0.488E-10 -.323E-07 0.280E+02   0.689E-13 -.137E-06 0.236E-04
   -.781E-13 0.175E-06 -.219E+03   0.445E-18 -.508E-16 0.290E+03   0.284E-09 0.459E-07 -.636E+02   0.703E-13 -.205E-06 0.975E-05
 -----------------------------------------------------------------------------------------------
   -.165E-12 0.374E-06 0.356E+02   -.170E-16 -.108E-16 0.000E+00   0.333E-09 0.136E-07 -.356E+02   0.139E-12 -.342E-06 0.334E-04
 
 
 POSITION                                       TOTAL-FORCE (eV/Angst)
 -----------------------------------------------------------------------------------
      0.00000      0.00000      0.00000        -0.000000      0.000000     -7.728695
      0.00000      0.00000      1.08800         0.000000     -0.000000      7.728695
 -----------------------------------------------------------------------------------
    total drift:                                0.000000      0.000000      0.002310


--------------------------------------------------------------------------------------------------------



  FREE ENERGIE OF THE ION-ELECTRON SYSTEM (eV)
  ---------------------------------------------------
  free  energy   TOTEN  =       -14.60264294 eV

  energy  without entropy=      -14.60264294  energy(sigma->0) =      -14.60264294
 
 d Force =-0.2079947E+00[-0.618E+00, 0.202E+00]  d Energy =-0.1695199E+00-0.385E-01
 d Force =-0.2167551E+02[-0.232E+02,-0.201E+02]  d Ewald  =-0.2162073E+02-0.548E-01


--------------------------------------------------------------------------------------------------------


    POTLOK:  cpu time    0.2401: real time    0.2467


--------------------------------------------------------------------------------------------------------


 stress matrix after NEB project (eV)
     -1.23008      0.00000     -0.00000
      0.00000     -1.23008      0.00000
      0.00000      0.00000      7.14970
  FORCES: max atom, RMS     7.728695    7.728695
  FORCE total and by dimension   10.930026    7.728695
  Stress total and by dimension    7.358289    7.149699
 Finite differences progress:
  Degree of freedom:   6/  6
  Displacement:        2/  2
  Total:              12/ 12
 
 SECOND DERIVATIVES (NOT SYMMETRIZED)
 ------------------------------------
               1X          1Y          1Z          2X          2Y          2Z 
  1X     1.587433   -0.000000    0.000021   -1.587433    0.000000   -0.000021
  1Y     0.000002    1.587432    0.000013   -0.000002   -1.587432   -0.000013
  1Z    -0.000000   -0.000009 -128.220681    0.000000    0.000009  128.220681
  2X    -1.587532   -0.000000   -0.000017    1.587532    0.000000    0.000017
  2Y    -0.000047   -1.587574   -0.000002    0.000047    1.587574    0.000002
  2Z     0.000000   -0.000000  128.219028   -0.000000    0.000000 -128.219028
 
 
 Eigenvectors and eigenvalues of the dynamical matrix
 ----------------------------------------------------
 
 
   1 f  =   67.583906 THz   424.642206 2PiTHz 2254.356379 cm-1   279.504669 meV
             X         Y         Z           dx          dy          dz
      0.000000  0.000000  0.000000    -0.000000   -0.000000    0.755783  
      0.000000  0.000000  1.128000     0.000000   -0.000000   -0.654823  
 
   2 f  =    0.000181 THz     0.001135 2PiTHz    0.006025 cm-1     0.000747 meV
             X         Y         Z           dx          dy          dz
      0.000000  0.000000  0.000000     0.197212    0.624188    0.017778  
      0.000000  0.000000  1.128000     0.227599    0.720388    0.020519  
 
   3 f  =    0.000107 THz     0.000673 2PiTHz    0.003575 cm-1     0.000443 meV
             X         Y         Z           dx          dy          dz
      0.000000  0.000000  0.000000     0.624434   -0.197106   -0.006385  
      0.000000  0.000000  1.128000     0.720685   -0.227484   -0.007370  
 
   4 f/i=    0.000216 THz     0.001354 2PiTHz    0.007190 cm-1     0.000891 meV
             X         Y         Z           dx          dy          dz
      0.000000  0.000000  0.000000     0.000735   -0.018875    0.654550  
      0.000000  0.000000  1.128000     0.000849   -0.021786    0.755468  
 
   5 f/i=    7.520008 THz    47.249602 2PiTHz  250.840451 cm-1    31.100263 meV
             X         Y         Z           dx          dy          dz
      0.000000  0.000000  0.000000     0.682404   -0.324830    0.000000  
      0.000000  0.000000  1.128000    -0.591269    0.281444    0.000000  
 
   6 f/i=    7.520072 THz    47.250009 2PiTHz  250.842609 cm-1    31.100531 meV
             X         Y         Z           dx          dy          dz
      0.000000  0.000000  0.000000    -0.324828   -0.682398    0.000001  
      0.000000  0.000000  1.128000     0.281447    0.591276    0.000001  
 
 Finite differences POTIM=  4.000000000000000E-002
 writing wavefunctions
     LOOP+:  cpu time    5.9963: real time    6.2381
    4ORBIT:  cpu time    0.0001: real time    0.0036

 total amount of memory used by VASP MPI-rank0    83405. kBytes
=======================================================================

   base      :      30000. kBytes
   nonl-proj :        675. kBytes
   fftplans  :      19794. kBytes
   grid      :      32325. kBytes
   one-center:          3. kBytes
   wavefun   :        608. kBytes
 
  
  
 General timing and accounting informations for this job:
 ========================================================
  
                  Total CPU time used (sec):       84.976
                            User time (sec):       75.119
                          System time (sec):        9.857
                         Elapsed time (sec):       92.065
  
                   Maximum memory used (kb):      154284.
                   Average memory used (kb):           0.
  
                          Minor page faults:      1133691
                          Major page faults:          297
                 Voluntary context switches:        57206
