 vasp.6.1.0 28Jan20 (build May 12 2023 01:18:31) complex                        
  
 executed on             LinuxIFC date 2023.06.17  15:27:19
 running on    4 total cores
 distrk:  each k-point on    4 cores,    1 groups
 distr:  one band on NCORE=   1 cores,    4 groups


--------------------------------------------------------------------------------------------------------


 INCAR:
 POTCAR:    PAW_PBE Cu 22Jun2005                  
 POTCAR:    PAW_PBE Ag 02Apr2005                  
 POTCAR:    PAW_PBE Cu 22Jun2005                  
   VRHFIN =Cu: d10 p1                                                                               
   LEXCH  = PE                                                                                      
   EATOM  =  1390.9808 eV,  102.2342 Ry                                                             
                                                                                                    
   TITEL  = PAW_PBE Cu 22Jun2005                                                                    
   LULTRA =        F    use ultrasoft PP ?                                                          
   IUNSCR =        1    unscreen: 0-lin 1-nonlin 2-no                                               
   RPACOR =    2.000    partial core radius                                                         
   POMASS =   63.546; ZVAL   =   11.000    mass and valenz                                          
   RCORE  =    2.300    outmost cutoff radius                                                       
   RWIGS  =    2.200; RWIGS  =    1.164    wigner-seitz radius (au A)                               
   ENMAX  =  295.446; ENMIN  =  221.585 eV                                                          
   ICORE  =        3    local potential                                                             
   LCOR   =        T    correct aug charges                                                         
   LPAW   =        T    paw PP                                                                      
   EAUG   =  586.980                                                                                
   DEXC   =    0.000                                                                                
   RMAX   =    2.344    core radius for proj-oper                                                   
   RAUG   =    1.300    factor for augmentation sphere                                              
   RDEP   =    2.302    radius for radial grids                                                     
   RDEPT  =    1.771    core radius for aug-charge                                                  
                                                                                                    
   Atomic configuration                                                                             
    9 entries                                                                                       
     n  l   j            E        occ.                                                              
     1  0  0.50     -8850.2468   2.0000                                                             
     2  0  0.50     -1062.3498   2.0000                                                             
     2  1  1.50      -916.8226   6.0000                                                             
     3  0  0.50      -114.6929   2.0000                                                             
     3  1  1.50       -72.1325   6.0000                                                             
     3  2  2.50        -5.0394  10.0000                                                             
     4  0  0.50        -4.6097   1.0000                                                             
     4  1  0.50        -4.0817   0.0000                                                             
     4  3  2.50        -1.3606   0.0000                                                             
   Description                                                                                      
     l       E           TYP  RCUT    TYP  RCUT                                                     
     2     -5.0393973     23  2.200                                                                 
     2     10.8846608     23  2.200                                                                 
     0     -4.6097109     23  2.200                                                                 
     0      8.2520465     23  2.200                                                                 
     1     -2.7211652     23  2.200                                                                 
     1     21.7055443     23  2.200                                                                 
     3      2.7211652     23  2.300                                                                 
  local pseudopotential read in
  partial core-charges read in
  partial kinetic energy density read in
  atomic valenz-charges read in
  non local Contribution for L=           2  read in
    real space projection operators read in
  non local Contribution for L=           2  read in
    real space projection operators read in
  non local Contribution for L=           0  read in
    real space projection operators read in
  non local Contribution for L=           0  read in
    real space projection operators read in
  non local Contribution for L=           1  read in
    real space projection operators read in
  non local Contribution for L=           1  read in
    real space projection operators read in
    PAW grid and wavefunctions read in
 
   number of l-projection  operators is LMAX  =           6
   number of lm-projection operators is LMMAX =          18
 
 POTCAR:    PAW_PBE Ag 02Apr2005                  
   VRHFIN =Ag : s1 d10                                                                              
   LEXCH  = PE                                                                                      
   EATOM  =  1037.2675 eV,   76.2370 Ry                                                             
                                                                                                    
   TITEL  = PAW_PBE Ag 02Apr2005                                                                    
   LULTRA =        F    use ultrasoft PP ?                                                          
   IUNSCR =        1    unscreen: 0-lin 1-nonlin 2-no                                               
   RPACOR =    2.000    partial core radius                                                         
   POMASS =  107.868; ZVAL   =   11.000    mass and valenz                                          
   RCORE  =    2.500    outmost cutoff radius                                                       
   RWIGS  =    2.840; RWIGS  =    1.503    wigner-seitz radius (au A)                               
   ENMAX  =  249.844; ENMIN  =  187.383 eV                                                          
   ICORE  =        3    local potential                                                             
   LCOR   =        T    correct aug charges                                                         
   LPAW   =        T    paw PP                                                                      
   EAUG   =  412.496                                                                                
   DEXC   =    0.000                                                                                
   RMAX   =    2.560    core radius for proj-oper                                                   
   RAUG   =    1.300    factor for augmentation sphere                                              
   RDEP   =    2.576    radius for radial grids                                                     
   RDEPT  =    2.072    core radius for aug-charge                                                  
                                                                                                    
   Atomic configuration                                                                             
   12 entries                                                                                       
     n  l   j            E        occ.                                                              
     1  0  0.50    -25324.9161   2.0000                                                             
     2  0  0.50     -3728.5341   2.0000                                                             
     2  1  1.50     -3344.0404   6.0000                                                             
     3  0  0.50      -683.5581   2.0000                                                             
     3  1  1.50      -557.3225   6.0000                                                             
     3  2  2.50      -358.3853  10.0000                                                             
     4  0  0.50       -95.0341   2.0000                                                             
     4  1  1.50       -58.5511   6.0000                                                             
     4  2  2.50        -7.4440  10.0000                                                             
     5  0  0.50        -4.4045   1.0000                                                             
     5  1  0.50        -1.3606   0.0000                                                             
     4  3  2.50        -1.3606   0.0000                                                             
   Description                                                                                      
     l       E           TYP  RCUT    TYP  RCUT                                                     
     2     -7.4439781     23  2.400                                                                 
     2     -8.8045607     23  2.400                                                                 
     0     -4.4044681     23  2.400                                                                 
     0      1.9520038     23  2.400                                                                 
     1     -1.3605826     23  2.500                                                                 
     1     27.2116520     23  2.500                                                                 
     3     -4.0817478     23  2.400                                                                 
  local pseudopotential read in
  partial core-charges read in
  partial kinetic energy density read in
  atomic valenz-charges read in
  non local Contribution for L=           2  read in
    real space projection operators read in
  non local Contribution for L=           2  read in
    real space projection operators read in
  non local Contribution for L=           0  read in
    real space projection operators read in
  non local Contribution for L=           0  read in
    real space projection operators read in
  non local Contribution for L=           1  read in
    real space projection operators read in
  non local Contribution for L=           1  read in
    real space projection operators read in
    PAW grid and wavefunctions read in
 
   number of l-projection  operators is LMAX  =           6
   number of lm-projection operators is LMMAX =          18
 
 Optimization of the real space projectors (new method)

 maximal supplied QI-value         = 16.25
 optimisation between [QCUT,QGAM] = [  9.91, 19.83] = [ 27.52,110.08] Ry 
 Optimized for a Real-space Cutoff    1.64 Angstroem

   l    n(q)    QCUT    max X(q) W(low)/X(q) W(high)/X(q)  e(spline) 
   2      9     9.914     4.610    0.13E-03    0.16E-03    0.22E-06
   2      9     9.914     8.522    0.22E-03    0.27E-03    0.38E-06
   0     10     9.914    51.609    0.51E-04    0.44E-04    0.14E-06
   0     10     9.914    27.747    0.48E-04    0.41E-04    0.13E-06
   1      9     9.914    20.408    0.16E-04    0.53E-04    0.12E-06
   1      9     9.914    13.425    0.14E-04    0.45E-04    0.11E-06
 Optimization of the real space projectors (new method)

 maximal supplied QI-value         = 15.12
 optimisation between [QCUT,QGAM] = [  9.98, 19.96] = [ 27.88,111.51] Ry 
 Optimized for a Real-space Cutoff    1.55 Angstroem

   l    n(q)    QCUT    max X(q) W(low)/X(q) W(high)/X(q)  e(spline) 
   2      8     9.978    53.897    0.14E-03    0.18E-04    0.10E-06
   2      8     9.978    52.416    0.14E-03    0.16E-04    0.11E-06
   0      9     9.978   122.045    0.49E-04    0.35E-04    0.80E-07
   0      9     9.978    73.629    0.45E-04    0.33E-04    0.77E-07
   1      9     9.978    15.255    0.10E-03    0.60E-04    0.12E-06
   1      9     9.978     9.562    0.85E-04    0.48E-04    0.10E-06
  PAW_PBE Cu 22Jun2005                  :
 energy of atom  1       EATOM=-1390.9808
 kinetic energy error for atom=    0.0292 (will be added to EATOM!!)
  PAW_PBE Ag 02Apr2005                  :
 energy of atom  2       EATOM=-1037.2675
 kinetic energy error for atom=    0.0139 (will be added to EATOM!!)
 
 
 POSCAR: Cu Ag
  positions in direct lattice
  No initial velocities read in
 exchange correlation table for  LEXCH =        8
   RHO(1)=    0.500       N(1)  =     2000
   RHO(2)=  100.500       N(2)  =     4000

 VTST: version 4.0, (05/15/20)

 CHAIN: initializing optimizer
 
 OPT: Using VASP Conjugate-Gradient optimizer
 CHAIN: Read ICHAIN            0
 
 POSCAR: Cu Ag
  positions in direct lattice
  No initial velocities read in
 


--------------------------------------------------------------------------------------------------------


 ion  position               nearest neighbor table
   1  0.250  0.250  0.997-   5 2.57   6 2.57   7 2.57   8 2.57   2 2.57   3 2.57   3 2.57   2 2.57

   2  0.750  0.250  0.997-   5 2.57   6 2.57   7 2.57   8 2.57   1 2.57   4 2.57   4 2.57   1 2.57

   3  0.250  0.750  0.997-   5 2.57   6 2.57   7 2.57   8 2.57   1 2.57   4 2.57   1 2.57   4 2.57

   4  0.750  0.750  0.997-   5 2.57   6 2.57   7 2.57   8 2.57   2 2.57   3 2.57   2 2.57   3 2.57

   5  0.000  0.000  0.049-   1 2.57   2 2.57   3 2.57   4 2.57   9 2.57  10 2.57  11 2.57  12 2.57
                             6 2.57   7 2.57   7 2.57   6 2.57
   6  0.500  0.000  0.049-   1 2.57   2 2.57   3 2.57   4 2.57   9 2.57  10 2.57  11 2.57  12 2.57
                             5 2.57   8 2.57   8 2.57   5 2.57
   7  0.000  0.500  0.049-   1 2.57   2 2.57   3 2.57   4 2.57   9 2.57  10 2.57  11 2.57  12 2.57
                             5 2.57   8 2.57   5 2.57   8 2.57
   8  0.500  0.500  0.049-   1 2.57   2 2.57   3 2.57   4 2.57   9 2.57  10 2.57  11 2.57  12 2.57
                             6 2.57   7 2.57   6 2.57   7 2.57
   9  0.250  0.250  0.100-   5 2.57   6 2.57   7 2.57   8 2.57  10 2.57  11 2.57  11 2.57  10 2.57
                            15 2.57  16 2.57  13 2.57  14 2.57
  10  0.750  0.250  0.100-   5 2.57   6 2.57   7 2.57   8 2.57   9 2.57  12 2.57  12 2.57   9 2.57
                            15 2.57  16 2.57  13 2.57  14 2.57
  11  0.250  0.750  0.100-   5 2.57   6 2.57   7 2.57   8 2.57   9 2.57  12 2.57   9 2.57  12 2.57
                            15 2.57  16 2.57  13 2.57  14 2.57
  12  0.750  0.750  0.100-   5 2.57   6 2.57   7 2.57   8 2.57  10 2.57  11 2.57  10 2.57  11 2.57
                            15 2.57  16 2.57  13 2.57  14 2.57
  13  0.000  0.000  0.152-  17 2.57  15 2.57  14 2.57  15 2.57  14 2.57  10 2.57  11 2.57  12 2.57
                             9 2.57
  14  0.500  0.000  0.152-  17 2.55  16 2.57  13 2.57  16 2.57  13 2.57  10 2.57  11 2.57  12 2.57
                             9 2.57
  15  0.000  0.500  0.152-  17 2.57  16 2.57  13 2.57  13 2.57  16 2.57  10 2.57  11 2.57  12 2.57
                             9 2.57
  16  0.500  0.500  0.152-  17 2.55  15 2.57  14 2.57  14 2.57  15 2.57  10 2.57  11 2.57  12 2.57
                             9 2.57
  17  0.255  0.750  0.203-  16 2.55  14 2.55  15 2.57  13 2.57
 
  LATTYP: Found a simple tetragonal cell.
 ALAT       =     5.1477373670
 C/A-ratio  =     6.8496112925
  
  Lattice vectors:
  
 A1 = (   5.1477373670,   0.0000000000,   0.0000000000)
 A2 = (   0.0000000000,   5.1477373670,   0.0000000000)
 A3 = (   0.0000000000,   0.0000000000,  35.2600000000)


Analysis of symmetry for initial positions (statically):
=====================================================================
 Subroutine PRICEL returns:
 Original cell was already a primitive cell.
 

 Routine SETGRP: Setting up the symmetry group for a 
 simple tetragonal supercell.


 Subroutine GETGRP returns: Found  1 space group operations
 (whereof  1 operations were pure point group operations)
 out of a pool of 16 trial point group operations.


The static configuration has the point symmetry C_1 .


Analysis of symmetry for dynamics (positions and initial velocities):
=====================================================================
 Subroutine PRICEL returns:
 Original cell was already a primitive cell.
 

 Routine SETGRP: Setting up the symmetry group for a 
 simple tetragonal supercell.


 Subroutine GETGRP returns: Found  1 space group operations
 (whereof  1 operations were pure point group operations)
 out of a pool of 16 trial point group operations.


The dynamic configuration has the point symmetry C_1 .


Analysis of constrained symmetry for selective dynamics:
=====================================================================
 Subroutine PRICEL returns:
 Original cell was already a primitive cell.
 

 Routine SETGRP: Setting up the symmetry group for a 
 simple tetragonal supercell.


 Subroutine GETGRP returns: Found  1 space group operations
 (whereof  1 operations were pure point group operations)
 out of a pool of 16 trial point group operations.


The constrained configuration has the point symmetry C_1 .


 Subroutine INISYM returns: Found  1 space group operations
 (whereof  1 operations are pure point group operations),
 and found     1 'primitive' translations


----------------------------------------------------------------------------------------

                                     Primitive cell                                     

  volume of cell :     934.3618

  direct lattice vectors                    reciprocal lattice vectors
     5.147737367  0.000000000  0.000000000     0.194260105  0.000000000  0.000000000
     0.000000000  5.147737367  0.000000000     0.000000000  0.194260105  0.000000000
     0.000000000  0.000000000 35.260000000     0.000000000  0.000000000  0.028360749

  length of vectors
     5.147737367  5.147737367 35.260000000     0.194260105  0.194260105  0.028360749

  position of ions in fractional coordinates (direct lattice)
     0.250000000  0.250000000  0.997050482
     0.750000000  0.250000000  0.997050482
     0.250000000  0.750000000  0.997050482
     0.750000000  0.750000000  0.997050482
     0.000000000  0.000000000  0.048667045
     0.500000000  0.000000000  0.048667045
     0.000000000  0.500000000  0.048667045
     0.500000000  0.500000000  0.048667045
     0.250000000  0.250000000  0.100283607
     0.750000000  0.250000000  0.100283607
     0.250000000  0.750000000  0.100283607
     0.750000000  0.750000000  0.100283607
     0.000000000  0.000000000  0.151900170
     0.500000000  0.000000000  0.151900170
     0.000000000  0.500000000  0.151900170
     0.500000000  0.500000000  0.151900170
     0.254558441  0.749533188  0.202949518

  ion indices of the primitive-cell ions
   primitive index   ion index
                 1           1
                 2           2
                 3           3
                 4           4
                 5           5
                 6           6
                 7           7
                 8           8
                 9           9
                10          10
                11          11
                12          12
                13          13
                14          14
                15          15
                16          16
                17          17

----------------------------------------------------------------------------------------

 
 
 KPOINTS: K-Points                                

Automatic generation of k-mesh.
Space group operators:
 irot       det(A)        alpha          n_x          n_y          n_z        tau_x        tau_y        tau_z
    1     1.000000     0.000000     1.000000     0.000000     0.000000     0.000000     0.000000     0.000000
 
 Subroutine IBZKPT returns following result:
 ===========================================
 
 Found      8 irreducible k-points:
 
 Following reciprocal coordinates:
            Coordinates               Weight
  0.125000  0.125000  0.000000      2.000000
 -0.125000  0.125000  0.000000      2.000000
  0.375000  0.125000  0.000000      2.000000
 -0.125000  0.375000  0.000000      2.000000
 -0.375000  0.125000  0.000000      2.000000
  0.125000  0.375000  0.000000      2.000000
  0.375000  0.375000  0.000000      2.000000
 -0.375000  0.375000  0.000000      2.000000
 
 Following cartesian coordinates:
            Coordinates               Weight
  0.024283  0.024283  0.000000      2.000000
 -0.024283  0.024283  0.000000      2.000000
  0.072848  0.024283  0.000000      2.000000
 -0.024283  0.072848  0.000000      2.000000
 -0.072848  0.024283  0.000000      2.000000
  0.024283  0.072848  0.000000      2.000000
  0.072848  0.072848  0.000000      2.000000
 -0.072848  0.072848  0.000000      2.000000
 


--------------------------------------------------------------------------------------------------------




 Dimension of arrays:
   k-points           NKPTS =      8   k-points in BZ     NKDIM =      8   number of bands    NBANDS=    112
   number of dos      NEDOS =    301   number of ions     NIONS =     17
   non local maximal  LDIM  =      6   non local SUM 2l+1 LMDIM =     18
   total plane-waves  NPLWV = 290304
   max r-space proj   IRMAX =   5811   max aug-charges    IRDMAX= 122398
   dimension x,y,z NGX =    36 NGY =   36 NGZ =  224
   dimension x,y,z NGXF=    72 NGYF=   72 NGZF=  448
   support grid    NGXF=   144 NGYF=  144 NGZF=  896
   ions per type =              16   1
   NGX,Y,Z   is equivalent  to a cutoff of  11.63, 11.63, 10.56 a.u.
   NGXF,Y,Z  is equivalent  to a cutoff of  23.25, 23.25, 21.12 a.u.

 SYSTEM =  unknown system                          
 POSCAR =  Cu Ag                                   

 Startparameter for this run:
   NWRITE =      2    write-flag & timer
   PREC   = accura    normal or accurate (medium, high low for compatibility)
   ISTART =      0    job   : 0-new  1-cont  2-samecut
   ICHARG =      2    charge: 1-file 2-atom 10-const
   ISPIN  =      1    spin polarized calculation?
   LNONCOLLINEAR =      F non collinear calculations
   LSORBIT =      F    spin-orbit coupling
   INIWAV =      1    electr: 0-lowe 1-rand  2-diag
   LASPH  =      F    aspherical Exc in radial PAW
   METAGGA=      F    non-selfconsistent MetaGGA calc.

 Electronic Relaxation 1
   ENCUT  =  380.0 eV  27.93 Ry    5.28 a.u.   8.18  8.18 56.04*2*pi/ulx,y,z
   ENINI  =  380.0     initial cutoff
   ENAUG  =  587.0 eV  augmentation charge cutoff
   NELM   =    400;   NELMIN=  2; NELMDL= -5     # of ELM steps 
   EDIFF  = 0.1E-06   stopping-criterion for ELM
   LREAL  =      T    real-space projection
   NLSPLINE    = F    spline interpolate recip. space projectors
   LCOMPAT=      F    compatible to vasp.4.4
   GGA_COMPAT  = T    GGA compatible to vasp.4.4-vasp.4.6
   LMAXPAW     = -100 max onsite density
   LMAXMIX     =    2 max onsite mixed and CHGCAR
   VOSKOWN=      0    Vosko Wilk Nusair interpolation
   ROPT   =   -0.00025  -0.00025
 Ionic relaxation
   EDIFFG = -.2E-02   stopping-criterion for IOM
   NSW    =    300    number of steps for IOM
   NBLOCK =      1;   KBLOCK =    300    inner block; outer block 
   IBRION =      2    ionic relax: 0-MD 1-quasi-New 2-CG
   NFREE  =      1    steps in history (QN), initial steepest desc. (CG)
   ISIF   =      2    stress and relaxation
   IWAVPR =     11    prediction:  0-non 1-charg 2-wave 3-comb
   ISYM   =      2    0-nonsym 1-usesym 2-fastsym
   LCORR  =      T    Harris-Foulkes like correction to forces

   POTIM  = 0.5000    time-step for ionic-motion
   TEIN   =    0.0    initial temperature
   TEBEG  =    0.0;   TEEND  =   0.0 temperature during run
   SMASS  =  -3.00    Nose mass-parameter (am)
   estimated Nose-frequenzy (Omega)   =  0.10E-29 period in steps = 0.13E+47 mass=  -0.606E-27a.u.
   SCALEE = 1.0000    scale energy and forces
   NPACO  =    256;   APACO  = 16.0  distance and # of slots for P.C.
   PSTRESS=    0.0 pullay stress

  Mass of Ions in am
   POMASS =  63.55107.87
  Ionic Valenz
   ZVAL   =  11.00 11.00
  Atomic Wigner-Seitz radii
   RWIGS  =  -1.00 -1.00
  virtual crystal weights 
   VCA    =   1.00  1.00
   NELECT =     187.0000    total number of electrons
   NUPDOWN=      -1.0000    fix difference up-down

 DOS related values:
   EMIN   =  10.00;   EMAX   =-10.00  energy-range for DOS
   EFERMI =   0.00
   ISMEAR =     1;   SIGMA  =   0.10  broadening in eV -4-tet -1-fermi 0-gaus

 Electronic relaxation 2 (details)
   IALGO  =     38    algorithm
   LDIAG  =      T    sub-space diagonalisation (order eigenvalues)
   LSUBROT=      F    optimize rotation matrix (better conditioning)
   TURBO    =      0    0=normal 1=particle mesh
   IRESTART =      0    0=no restart 2=restart with 2 vectors
   NREBOOT  =      0    no. of reboots
   NMIN     =      0    reboot dimension
   EREF     =   0.00    reference energy to select bands
   IMIX   =      4    mixing-type and parameters
     AMIX     =   0.40;   BMIX     =  1.00
     AMIX_MAG =   1.60;   BMIX_MAG =  1.00
     AMIN     =   0.10
     WC   =   100.;   INIMIX=   1;  MIXPRE=   1;  MAXMIX= -45

 Intra band minimization:
   WEIMIN = 0.0010     energy-eigenvalue tresh-hold
   EBREAK =  0.22E-09  absolut break condition
   DEPER  =   0.30     relativ break condition  

   TIME   =   0.40     timestep for ELM

  volume/ion in A,a.u.               =      54.96       370.90
  Fermi-wavevector in a.u.,A,eV,Ry     =   0.957599  1.809600 12.476485  0.916996
  Thomas-Fermi vector in A             =   2.086631
 
 Write flags
   LWAVE        =      F    write WAVECAR
   LDOWNSAMPLE  =      F    k-point downsampling of WAVECAR
   LCHARG       =      F    write CHGCAR
   LVTOT        =      F    write LOCPOT, total local potential
   LVHAR        =      F    write LOCPOT, Hartree potential only
   LELF         =      F    write electronic localiz. function (ELF)
   LORBIT       =      0    0 simple, 1 ext, 2 COOP (PROOUT), +10 PAW based schemes


 Dipole corrections
   LMONO  =      F    monopole corrections only (constant potential shift)
   LDIPOL =      F    correct potential (dipole corrections)
   IDIPOL =      0    1-x, 2-y, 3-z, 4-all directions 
   EPSILON=  1.0000000 bulk dielectric constant

 Exchange correlation treatment:
   GGA     =    --    GGA type
   LEXCH   =     8    internal setting for exchange type
   VOSKOWN=      0    Vosko Wilk Nusair interpolation
   LHFCALC =     F    Hartree Fock is set to
   LHFONE  =     F    Hartree Fock one center treatment
   AEXX    =    0.0000 exact exchange contribution

 Linear response parameters
   LEPSILON=     F    determine dielectric tensor
   LRPA    =     F    only Hartree local field effects (RPA)
   LNABLA  =     F    use nabla operator in PAW spheres
   LVEL    =     F    velocity operator in full k-point grid
   LINTERFAST=   F  fast interpolation
   KINTER  =     0    interpolate to denser k-point grid
   CSHIFT  =0.1000    complex shift for real part using Kramers Kronig
   OMEGAMAX=  -1.0    maximum frequency
   DEG_THRESHOLD= 0.2000000E-02 threshold for treating states as degnerate
   RTIME   =   -0.100 relaxation time in fs
  (WPLASMAI=    0.000 imaginary part of plasma frequency in eV, 0.658/RTIME)
   DFIELD  = 0.0000000 0.0000000 0.0000000 field for delta impulse in time
 
 Orbital magnetization related:
   ORBITALMAG=     F  switch on orbital magnetization
   LCHIMAG   =     F  perturbation theory with respect to B field
   DQ        =  0.001000  dq finite difference perturbation B field
   LLRAUG    =     F  two centre corrections for induced B field



--------------------------------------------------------------------------------------------------------


 conjugate gradient relaxation of ions
   using selective dynamics as specified on POSCAR
 charge density and potential will be updated during run
 non-spin polarized calculation
 Variant of blocked Davidson
 Davidson routine will perform the subspace rotation
 perform sub-space diagonalisation
    after iterative eigenvector-optimisation
 modified Broyden-mixing scheme, WC =      100.0
 initial mixing is a Kerker type mixing with AMIX =  0.4000 and BMIX =      1.0000
 Hartree-type preconditioning will be used
 using additional bands           18
 real space projection scheme for non local part
 use partial core corrections
 calculate Harris-corrections to forces 
   (improved forces if not selfconsistent)
 use gradient corrections 
 use of overlap-Matrix (Vanderbilt PP)
 Methfessel and Paxton  Order N= 1 SIGMA  =   0.10


--------------------------------------------------------------------------------------------------------


  energy-cutoff  :      380.00
  volume of cell :      934.36
      direct lattice vectors                 reciprocal lattice vectors
     5.147737367  0.000000000  0.000000000     0.194260105  0.000000000  0.000000000
     0.000000000  5.147737367  0.000000000     0.000000000  0.194260105  0.000000000
     0.000000000  0.000000000 35.260000000     0.000000000  0.000000000  0.028360749

  length of vectors
     5.147737367  5.147737367 35.260000000     0.194260105  0.194260105  0.028360749


 
 k-points in units of 2pi/SCALE and weight: K-Points                                
   0.02428251  0.02428251  0.00000000       0.125
  -0.02428251  0.02428251  0.00000000       0.125
   0.07284754  0.02428251  0.00000000       0.125
  -0.02428251  0.07284754  0.00000000       0.125
  -0.07284754  0.02428251  0.00000000       0.125
   0.02428251  0.07284754  0.00000000       0.125
   0.07284754  0.07284754  0.00000000       0.125
  -0.07284754  0.07284754  0.00000000       0.125
 
 k-points in reciprocal lattice and weights: K-Points                                
   0.12500000  0.12500000  0.00000000       0.125
  -0.12500000  0.12500000  0.00000000       0.125
   0.37500000  0.12500000  0.00000000       0.125
  -0.12500000  0.37500000  0.00000000       0.125
  -0.37500000  0.12500000  0.00000000       0.125
   0.12500000  0.37500000  0.00000000       0.125
   0.37500000  0.37500000  0.00000000       0.125
  -0.37500000  0.37500000  0.00000000       0.125
 
 position of ions in fractional coordinates (direct lattice) 
   0.25000000  0.25000000  0.99705048
   0.75000000  0.25000000  0.99705048
   0.25000000  0.75000000  0.99705048
   0.75000000  0.75000000  0.99705048
   0.00000000  0.00000000  0.04866704
   0.50000000  0.00000000  0.04866704
   0.00000000  0.50000000  0.04866704
   0.50000000  0.50000000  0.04866704
   0.25000000  0.25000000  0.10028361
   0.75000000  0.25000000  0.10028361
   0.25000000  0.75000000  0.10028361
   0.75000000  0.75000000  0.10028361
   0.00000000  0.00000000  0.15190017
   0.50000000  0.00000000  0.15190017
   0.00000000  0.50000000  0.15190017
   0.50000000  0.50000000  0.15190017
   0.25455844  0.74953319  0.20294952
 
 position of ions in cartesian coordinates  (Angst):
   1.28693434  1.28693434 35.15600000
   3.86080303  1.28693434 35.15600000
   1.28693434  3.86080303 35.15600000
   3.86080303  3.86080303 35.15600000
   0.00000000  0.00000000  1.71600000
   2.57386868  0.00000000  1.71600000
   0.00000000  2.57386868  1.71600000
   2.57386868  2.57386868  1.71600000
   1.28693434  1.28693434  3.53600000
   3.86080303  1.28693434  3.53600000
   1.28693434  3.86080303  3.53600000
   3.86080303  3.86080303  3.53600000
   0.00000000  0.00000000  5.35600000
   2.57386868  0.00000000  5.35600000
   0.00000000  2.57386868  5.35600000
   2.57386868  2.57386868  5.35600000
   1.31040000  3.85840000  7.15600000
 


--------------------------------------------------------------------------------------------------------


 k-point   1 :   0.1250 0.1250 0.0000  plane waves:   15739
 k-point   2 :  -0.1250 0.1250 0.0000  plane waves:   15739
 k-point   3 :   0.3750 0.1250 0.0000  plane waves:   15695
 k-point   4 :  -0.1250 0.3750 0.0000  plane waves:   15695
 k-point   5 :  -0.3750 0.1250 0.0000  plane waves:   15695
 k-point   6 :   0.1250 0.3750 0.0000  plane waves:   15695
 k-point   7 :   0.3750 0.3750 0.0000  plane waves:   15772
 k-point   8 :  -0.3750 0.3750 0.0000  plane waves:   15772

 maximum and minimum number of plane-waves per node :     15772    15695

 maximum number of plane-waves:     15772
 maximum index in each direction: 
   IXMAX=    8   IYMAX=    8   IZMAX=   56
   IXMIN=   -8   IYMIN=   -8   IZMIN=  -56


 serial   3D FFT for wavefunctions
 parallel 3D FFT for charge:
    minimum data exchange during FFTs selected (reduces bandwidth)


 total amount of memory used by VASP MPI-rank0   234582. kBytes
=======================================================================

   base      :      30000. kBytes
   nonlr-proj:      16576. kBytes
   fftplans  :      85862. kBytes
   grid      :      44250. kBytes
   one-center:        264. kBytes
   wavefun   :      57630. kBytes
 
     INWAV:  cpu time    0.0000: real time    0.0000
 Broyden mixing: mesh for mixing (old mesh)
   NGX = 17   NGY = 17   NGZ =113
  (NGX  = 72   NGY  = 72   NGZ  =448)
  gives a total of  32657 points

 initial charge density was supplied:
 charge density of overlapping atoms calculated
 number of electron     187.0000000 magnetization 
 keeping initial charge density in first step


--------------------------------------------------------------------------------------------------------


 Maximum index for non-local projection operator         5601
 Maximum index for augmentation-charges        29623 (set IRDMAX)


--------------------------------------------------------------------------------------------------------


 First call to EWALD:  gamma=   0.181
 Maximum number of real-space cells 5x 5x 1
 Maximum number of reciprocal cells 2x 2x 9

    FEWALD:  cpu time    0.0020: real time    0.0032


--------------------------------------- Iteration      1(   1)  ---------------------------------------


    POTLOK:  cpu time    0.2694: real time    0.2804
    SETDIJ:  cpu time    0.1884: real time    0.1926
     EDDAV:  cpu time    9.4266: real time    9.4389
       DOS:  cpu time    0.0014: real time    0.0030
    --------------------------------------------
      LOOP:  cpu time    9.8858: real time    9.9149

 eigenvalue-minimisations  :  1792
 total energy-change (2. order) : 0.1504253E+04  (-0.6292214E+04)
 number of electron     187.0000000 magnetization 
 augmentation part      187.0000000 magnetization 

 Free energy of the ion-electron system (eV)
  ---------------------------------------------------
  alpha Z        PSCENC =       228.37091057
  Ewald energy   TEWEN  =    195470.57522897
  -Hartree energ DENC   =   -217387.20340589
  -exchange      EXHF   =         0.00000000
  -V(xc)+E(xc)   XCENC  =       716.39900082
  PAW double counting   =     20654.76870738   -22302.12474825
  entropy T*S    EENTRO =         0.00214431
  eigenvalues    EBANDS =       830.98589155
  atomic energy  EATOM  =     23292.47908388
  Solvation  Ediel_sol  =         0.00000000
  ---------------------------------------------------
  free energy    TOTEN  =      1504.25281334 eV

  energy without entropy =     1504.25066902  energy(sigma->0) =     1504.25209856


--------------------------------------------------------------------------------------------------------




--------------------------------------- Iteration      1(   2)  ---------------------------------------


     EDDAV:  cpu time    9.4573: real time    9.4568
       DOS:  cpu time    0.0009: real time    0.0009
    --------------------------------------------
      LOOP:  cpu time    9.4582: real time    9.4577

 eigenvalue-minimisations  :  1800
 total energy-change (2. order) :-0.1431582E+04  (-0.1377943E+04)
 number of electron     187.0000000 magnetization 
 augmentation part      187.0000000 magnetization 

 Free energy of the ion-electron system (eV)
  ---------------------------------------------------
  alpha Z        PSCENC =       228.37091057
  Ewald energy   TEWEN  =    195470.57522897
  -Hartree energ DENC   =   -217387.20340589
  -exchange      EXHF   =         0.00000000
  -V(xc)+E(xc)   XCENC  =       716.39900082
  PAW double counting   =     20654.76870738   -22302.12474825
  entropy T*S    EENTRO =         0.00208140
  eigenvalues    EBANDS =      -600.59583353
  atomic energy  EATOM  =     23292.47908388
  Solvation  Ediel_sol  =         0.00000000
  ---------------------------------------------------
  free energy    TOTEN  =        72.67102534 eV

  energy without entropy =       72.66894394  energy(sigma->0) =       72.67033154


--------------------------------------------------------------------------------------------------------




--------------------------------------- Iteration      1(   3)  ---------------------------------------


     EDDAV:  cpu time   10.3239: real time   10.3234
       DOS:  cpu time    0.0010: real time    0.0010
    --------------------------------------------
      LOOP:  cpu time   10.3249: real time   10.3244

 eigenvalue-minimisations  :  2024
 total energy-change (2. order) :-0.1339931E+03  (-0.1228720E+03)
 number of electron     187.0000000 magnetization 
 augmentation part      187.0000000 magnetization 

 Free energy of the ion-electron system (eV)
  ---------------------------------------------------
  alpha Z        PSCENC =       228.37091057
  Ewald energy   TEWEN  =    195470.57522897
  -Hartree energ DENC   =   -217387.20340589
  -exchange      EXHF   =         0.00000000
  -V(xc)+E(xc)   XCENC  =       716.39900082
  PAW double counting   =     20654.76870738   -22302.12474825
  entropy T*S    EENTRO =        -0.00099043
  eigenvalues    EBANDS =      -734.58585783
  atomic energy  EATOM  =     23292.47908388
  Solvation  Ediel_sol  =         0.00000000
  ---------------------------------------------------
  free energy    TOTEN  =       -61.32207079 eV

  energy without entropy =      -61.32108036  energy(sigma->0) =      -61.32174065


--------------------------------------------------------------------------------------------------------




--------------------------------------- Iteration      1(   4)  ---------------------------------------


     EDDAV:  cpu time   10.9100: real time   10.9094
       DOS:  cpu time    0.0010: real time    0.0010
    --------------------------------------------
      LOOP:  cpu time   10.9110: real time   10.9103

 eigenvalue-minimisations  :  2176
 total energy-change (2. order) :-0.8331763E+01  (-0.8178389E+01)
 number of electron     187.0000000 magnetization 
 augmentation part      187.0000000 magnetization 

 Free energy of the ion-electron system (eV)
  ---------------------------------------------------
  alpha Z        PSCENC =       228.37091057
  Ewald energy   TEWEN  =    195470.57522897
  -Hartree energ DENC   =   -217387.20340589
  -exchange      EXHF   =         0.00000000
  -V(xc)+E(xc)   XCENC  =       716.39900082
  PAW double counting   =     20654.76870738   -22302.12474825
  entropy T*S    EENTRO =        -0.00473832
  eigenvalues    EBANDS =      -742.91387289
  atomic energy  EATOM  =     23292.47908388
  Solvation  Ediel_sol  =         0.00000000
  ---------------------------------------------------
  free energy    TOTEN  =       -69.65383373 eV

  energy without entropy =      -69.64909541  energy(sigma->0) =      -69.65225429


--------------------------------------------------------------------------------------------------------




--------------------------------------- Iteration      1(   5)  ---------------------------------------


     EDDAV:  cpu time   11.0344: real time   11.0336
       DOS:  cpu time    0.0010: real time    0.0010
    CHARGE:  cpu time    0.9042: real time    0.9080
    MIXING:  cpu time    0.0087: real time    0.0100
    --------------------------------------------
      LOOP:  cpu time   11.9483: real time   11.9526

 eigenvalue-minimisations  :  2208
 total energy-change (2. order) :-0.2303502E+00  (-0.2298604E+00)
 number of electron     187.0000016 magnetization 
 augmentation part      109.8210026 magnetization 

 Broyden mixing:
  rms(total) = 0.28581E+01    rms(broyden)= 0.28580E+01
  rms(prec ) = 0.29267E+01
  weight for this iteration     100.00

 Free energy of the ion-electron system (eV)
  ---------------------------------------------------
  alpha Z        PSCENC =       228.37091057
  Ewald energy   TEWEN  =    195470.57522897
  -Hartree energ DENC   =   -217387.20340589
  -exchange      EXHF   =         0.00000000
  -V(xc)+E(xc)   XCENC  =       716.39900082
  PAW double counting   =     20654.76870738   -22302.12474825
  entropy T*S    EENTRO =        -0.00489657
  eigenvalues    EBANDS =      -743.14406488
  atomic energy  EATOM  =     23292.47908388
  Solvation  Ediel_sol  =         0.00000000
  ---------------------------------------------------
  free energy    TOTEN  =       -69.88418398 eV

  energy without entropy =      -69.87928740  energy(sigma->0) =      -69.88255179


--------------------------------------------------------------------------------------------------------




--------------------------------------- Iteration      1(   6)  ---------------------------------------


    POTLOK:  cpu time    0.2502: real time    0.2573
    SETDIJ:  cpu time    0.1872: real time    0.1891
     EDDAV:  cpu time   10.1715: real time   10.1706
       DOS:  cpu time    0.0010: real time    0.0010
    CHARGE:  cpu time    0.8853: real time    0.8876
    MIXING:  cpu time    0.0075: real time    0.0075
    --------------------------------------------
      LOOP:  cpu time   11.5028: real time   11.5132

 eigenvalue-minimisations  :  1992
 total energy-change (2. order) : 0.6548616E+01  (-0.1558245E+02)
 number of electron     187.0000018 magnetization 
 augmentation part      122.4121835 magnetization 

 Broyden mixing:
  rms(total) = 0.15716E+01    rms(broyden)= 0.15713E+01
  rms(prec ) = 0.16196E+01
  weight for this iteration     100.00

 eigenvalues of (default mixing * dielectric matrix)
  average eigenvalue GAMMA=   0.6494
  0.6494

 Free energy of the ion-electron system (eV)
  ---------------------------------------------------
  alpha Z        PSCENC =       228.37091057
  Ewald energy   TEWEN  =    195470.57522897
  -Hartree energ DENC   =   -216982.43163709
  -exchange      EXHF   =         0.00000000
  -V(xc)+E(xc)   XCENC  =       695.37986478
  PAW double counting   =     20867.98941385   -22432.16188534
  entropy T*S    EENTRO =        -0.01274226
  eigenvalues    EBANDS =     -1203.52380529
  atomic energy  EATOM  =     23292.47908388
  Solvation  Ediel_sol  =         0.00000000
  ---------------------------------------------------
  free energy    TOTEN  =       -63.33556794 eV

  energy without entropy =      -63.32282568  energy(sigma->0) =      -63.33132052


--------------------------------------------------------------------------------------------------------




--------------------------------------- Iteration      1(   7)  ---------------------------------------


    POTLOK:  cpu time    0.2463: real time    0.2535
    SETDIJ:  cpu time    0.1879: real time    0.1898
     EDDAV:  cpu time   10.8796: real time   10.8786
       DOS:  cpu time    0.0010: real time    0.0010
    CHARGE:  cpu time    0.8951: real time    0.8973
    MIXING:  cpu time    0.0075: real time    0.0075
    --------------------------------------------
      LOOP:  cpu time   12.2173: real time   12.2277

 eigenvalue-minimisations  :  2176
 total energy-change (2. order) : 0.6141186E+01  (-0.3082466E+01)
 number of electron     187.0000018 magnetization 
 augmentation part      118.3953878 magnetization 

 Broyden mixing:
  rms(total) = 0.44480E+00    rms(broyden)= 0.44472E+00
  rms(prec ) = 0.45953E+00
  weight for this iteration     100.00

 eigenvalues of (default mixing * dielectric matrix)
  average eigenvalue GAMMA=   0.5299
  0.6365  0.4232

 Free energy of the ion-electron system (eV)
  ---------------------------------------------------
  alpha Z        PSCENC =       228.37091057
  Ewald energy   TEWEN  =    195470.57522897
  -Hartree energ DENC   =   -217212.97698036
  -exchange      EXHF   =         0.00000000
  -V(xc)+E(xc)   XCENC  =       702.12516787
  PAW double counting   =     21247.16607136   -22883.12899852
  entropy T*S    EENTRO =        -0.01365732
  eigenvalues    EBANDS =      -901.79120887
  atomic energy  EATOM  =     23292.47908388
  Solvation  Ediel_sol  =         0.00000000
  ---------------------------------------------------
  free energy    TOTEN  =       -57.19438243 eV

  energy without entropy =      -57.18072511  energy(sigma->0) =      -57.18982999


--------------------------------------------------------------------------------------------------------




--------------------------------------- Iteration      1(   8)  ---------------------------------------


    POTLOK:  cpu time    0.2477: real time    0.2549
    SETDIJ:  cpu time    0.1872: real time    0.1891
     EDDAV:  cpu time   11.2032: real time   11.2022
       DOS:  cpu time    0.0010: real time    0.0010
    CHARGE:  cpu time    0.8931: real time    0.8951
    MIXING:  cpu time    0.0076: real time    0.0076
    --------------------------------------------
      LOOP:  cpu time   12.5399: real time   12.5500

 eigenvalue-minimisations  :  2264
 total energy-change (2. order) :-0.1620465E+00  (-0.6153181E+00)
 number of electron     187.0000018 magnetization 
 augmentation part      117.7650034 magnetization 

 Broyden mixing:
  rms(total) = 0.27587E+00    rms(broyden)= 0.27583E+00
  rms(prec ) = 0.28282E+00
  weight for this iteration     100.00

 eigenvalues of (default mixing * dielectric matrix)
  average eigenvalue GAMMA=   0.6975
  1.1242  0.5996  0.3688

 Free energy of the ion-electron system (eV)
  ---------------------------------------------------
  alpha Z        PSCENC =       228.37091057
  Ewald energy   TEWEN  =    195470.57522897
  -Hartree energ DENC   =   -217221.76483437
  -exchange      EXHF   =         0.00000000
  -V(xc)+E(xc)   XCENC  =       702.34230487
  PAW double counting   =     21383.40603786   -23031.28778484
  entropy T*S    EENTRO =        -0.01653382
  eigenvalues    EBANDS =      -881.46084200
  atomic energy  EATOM  =     23292.47908388
  Solvation  Ediel_sol  =         0.00000000
  ---------------------------------------------------
  free energy    TOTEN  =       -57.35642889 eV

  energy without entropy =      -57.33989507  energy(sigma->0) =      -57.35091761


--------------------------------------------------------------------------------------------------------




--------------------------------------- Iteration      1(   9)  ---------------------------------------


    POTLOK:  cpu time    0.2472: real time    0.2544
    SETDIJ:  cpu time    0.1872: real time    0.1890
     EDDAV:  cpu time   11.1465: real time   11.1455
       DOS:  cpu time    0.0010: real time    0.0010
    CHARGE:  cpu time    0.8926: real time    0.8947
    MIXING:  cpu time    0.0086: real time    0.0086
    --------------------------------------------
      LOOP:  cpu time   12.4830: real time   12.4932

 eigenvalue-minimisations  :  2248
 total energy-change (2. order) :-0.2159754E-01  (-0.1545506E+00)
 number of electron     187.0000018 magnetization 
 augmentation part      117.3381013 magnetization 

 Broyden mixing:
  rms(total) = 0.24087E+00    rms(broyden)= 0.24085E+00
  rms(prec ) = 0.24927E+00
  weight for this iteration     100.00

 eigenvalues of (default mixing * dielectric matrix)
  average eigenvalue GAMMA=   0.8047
  1.6725  0.5902  0.5902  0.3660

 Free energy of the ion-electron system (eV)
  ---------------------------------------------------
  alpha Z        PSCENC =       228.37091057
  Ewald energy   TEWEN  =    195470.57522897
  -Hartree energ DENC   =   -217234.53856566
  -exchange      EXHF   =         0.00000000
  -V(xc)+E(xc)   XCENC  =       701.99130157
  PAW double counting   =     21598.89549374   -23262.69757829
  entropy T*S    EENTRO =        -0.01602166
  eigenvalues    EBANDS =      -852.43787953
  atomic energy  EATOM  =     23292.47908388
  Solvation  Ediel_sol  =         0.00000000
  ---------------------------------------------------
  free energy    TOTEN  =       -57.37802642 eV

  energy without entropy =      -57.36200476  energy(sigma->0) =      -57.37268587


--------------------------------------------------------------------------------------------------------




--------------------------------------- Iteration      1(  10)  ---------------------------------------


    POTLOK:  cpu time    0.2472: real time    0.2542
    SETDIJ:  cpu time    0.1872: real time    0.1891
     EDDAV:  cpu time   10.6845: real time   10.6836
       DOS:  cpu time    0.0010: real time    0.0010
    CHARGE:  cpu time    0.8949: real time    0.8973
    MIXING:  cpu time    0.0079: real time    0.0079
    --------------------------------------------
      LOOP:  cpu time   12.0229: real time   12.0332

 eigenvalue-minimisations  :  2128
 total energy-change (2. order) : 0.2885783E-01  (-0.6499457E-01)
 number of electron     187.0000018 magnetization 
 augmentation part      117.4529378 magnetization 

 Broyden mixing:
  rms(total) = 0.16710E+00    rms(broyden)= 0.16708E+00
  rms(prec ) = 0.18857E+00
  weight for this iteration     100.00

 eigenvalues of (default mixing * dielectric matrix)
  average eigenvalue GAMMA=   0.8720
  2.1242  0.7360  0.7360  0.4253  0.3387

 Free energy of the ion-electron system (eV)
  ---------------------------------------------------
  alpha Z        PSCENC =       228.37091057
  Ewald energy   TEWEN  =    195470.57522897
  -Hartree energ DENC   =   -217227.60912536
  -exchange      EXHF   =         0.00000000
  -V(xc)+E(xc)   XCENC  =       701.23521860
  PAW double counting   =     21717.03876240   -23386.99673863
  entropy T*S    EENTRO =        -0.01637592
  eigenvalues    EBANDS =      -852.42613310
  atomic energy  EATOM  =     23292.47908388
  Solvation  Ediel_sol  =         0.00000000
  ---------------------------------------------------
  free energy    TOTEN  =       -57.34916859 eV

  energy without entropy =      -57.33279268  energy(sigma->0) =      -57.34370995


--------------------------------------------------------------------------------------------------------




--------------------------------------- Iteration      1(  11)  ---------------------------------------


    POTLOK:  cpu time    0.2490: real time    0.2561
    SETDIJ:  cpu time    0.1873: real time    0.1891
     EDDAV:  cpu time   12.3116: real time   12.3105
       DOS:  cpu time    0.0010: real time    0.0010
    CHARGE:  cpu time    0.8949: real time    0.8971
    MIXING:  cpu time    0.0079: real time    0.0079
    --------------------------------------------
      LOOP:  cpu time   13.6517: real time   13.6617

 eigenvalue-minimisations  :  2536
 total energy-change (2. order) : 0.5331091E-01  (-0.5796309E-01)
 number of electron     187.0000018 magnetization 
 augmentation part      117.6204020 magnetization 

 Broyden mixing:
  rms(total) = 0.61139E-01    rms(broyden)= 0.61107E-01
  rms(prec ) = 0.81611E-01
  weight for this iteration     100.00

 eigenvalues of (default mixing * dielectric matrix)
  average eigenvalue GAMMA=   0.8733
  2.2737  0.7987  0.7987  0.6745  0.3844  0.3096

 Free energy of the ion-electron system (eV)
  ---------------------------------------------------
  alpha Z        PSCENC =       228.37091057
  Ewald energy   TEWEN  =    195470.57522897
  -Hartree energ DENC   =   -217221.83786090
  -exchange      EXHF   =         0.00000000
  -V(xc)+E(xc)   XCENC  =       700.53990564
  PAW double counting   =     21805.45110203   -23479.10760702
  entropy T*S    EENTRO =        -0.01735275
  eigenvalues    EBANDS =      -853.74926810
  atomic energy  EATOM  =     23292.47908388
  Solvation  Ediel_sol  =         0.00000000
  ---------------------------------------------------
  free energy    TOTEN  =       -57.29585768 eV

  energy without entropy =      -57.27850494  energy(sigma->0) =      -57.29007343


--------------------------------------------------------------------------------------------------------




--------------------------------------- Iteration      1(  12)  ---------------------------------------


    POTLOK:  cpu time    0.2478: real time    0.2551
    SETDIJ:  cpu time    0.1871: real time    0.1891
     EDDAV:  cpu time   12.8075: real time   12.8064
       DOS:  cpu time    0.0010: real time    0.0010
    CHARGE:  cpu time    0.8947: real time    0.8968
    MIXING:  cpu time    0.0088: real time    0.0088
    --------------------------------------------
      LOOP:  cpu time   14.1469: real time   14.1572

 eigenvalue-minimisations  :  2664
 total energy-change (2. order) : 0.1015573E-01  (-0.1897406E-01)
 number of electron     187.0000018 magnetization 
 augmentation part      117.7563794 magnetization 

 Broyden mixing:
  rms(total) = 0.25452E-01    rms(broyden)= 0.25441E-01
  rms(prec ) = 0.27970E-01
  weight for this iteration     100.00

 eigenvalues of (default mixing * dielectric matrix)
  average eigenvalue GAMMA=   0.8582
  2.1594  0.9347  0.9347  0.7344  0.5738  0.3834  0.2869

 Free energy of the ion-electron system (eV)
  ---------------------------------------------------
  alpha Z        PSCENC =       228.37091057
  Ewald energy   TEWEN  =    195470.57522897
  -Hartree energ DENC   =   -217221.32257298
  -exchange      EXHF   =         0.00000000
  -V(xc)+E(xc)   XCENC  =       700.31570760
  PAW double counting   =     21831.61870908   -23506.03732512
  entropy T*S    EENTRO =        -0.01781755
  eigenvalues    EBANDS =      -853.26762640
  atomic energy  EATOM  =     23292.47908388
  Solvation  Ediel_sol  =         0.00000000
  ---------------------------------------------------
  free energy    TOTEN  =       -57.28570196 eV

  energy without entropy =      -57.26788440  energy(sigma->0) =      -57.27976277


--------------------------------------------------------------------------------------------------------




--------------------------------------- Iteration      1(  13)  ---------------------------------------


    POTLOK:  cpu time    0.2486: real time    0.2558
    SETDIJ:  cpu time    0.1872: real time    0.1890
     EDDAV:  cpu time   10.2232: real time   10.2223
       DOS:  cpu time    0.0010: real time    0.0010
    CHARGE:  cpu time    0.8952: real time    0.8975
    MIXING:  cpu time    0.0081: real time    0.0081
    --------------------------------------------
      LOOP:  cpu time   11.5633: real time   11.5737

 eigenvalue-minimisations  :  2000
 total energy-change (2. order) :-0.3668954E-02  (-0.6037475E-02)
 number of electron     187.0000018 magnetization 
 augmentation part      117.7398851 magnetization 

 Broyden mixing:
  rms(total) = 0.22141E-01    rms(broyden)= 0.22138E-01
  rms(prec ) = 0.23308E-01
  weight for this iteration     100.00

 eigenvalues of (default mixing * dielectric matrix)
  average eigenvalue GAMMA=   0.9203
  2.0454  2.0454  0.8102  0.8102  0.5538  0.2884  0.4426  0.3665

 Free energy of the ion-electron system (eV)
  ---------------------------------------------------
  alpha Z        PSCENC =       228.37091057
  Ewald energy   TEWEN  =    195470.57522897
  -Hartree energ DENC   =   -217229.22215194
  -exchange      EXHF   =         0.00000000
  -V(xc)+E(xc)   XCENC  =       700.41550191
  PAW double counting   =     21836.22154219   -23511.35024645
  entropy T*S    EENTRO =        -0.01789407
  eigenvalues    EBANDS =      -844.76134596
  atomic energy  EATOM  =     23292.47908388
  Solvation  Ediel_sol  =         0.00000000
  ---------------------------------------------------
  free energy    TOTEN  =       -57.28937091 eV

  energy without entropy =      -57.27147684  energy(sigma->0) =      -57.28340622


--------------------------------------------------------------------------------------------------------




--------------------------------------- Iteration      1(  14)  ---------------------------------------


    POTLOK:  cpu time    0.2480: real time    0.2554
    SETDIJ:  cpu time    0.1875: real time    0.1892
     EDDAV:  cpu time   10.6875: real time   10.6866
       DOS:  cpu time    0.0010: real time    0.0010
    CHARGE:  cpu time    0.8956: real time    0.8978
    MIXING:  cpu time    0.0084: real time    0.0084
    --------------------------------------------
      LOOP:  cpu time   12.0280: real time   12.0384

 eigenvalue-minimisations  :  2120
 total energy-change (2. order) :-0.8115146E-04  (-0.1189778E-02)
 number of electron     187.0000018 magnetization 
 augmentation part      117.7015929 magnetization 

 Broyden mixing:
  rms(total) = 0.24169E-01    rms(broyden)= 0.24168E-01
  rms(prec ) = 0.25060E-01
  weight for this iteration     100.00

 eigenvalues of (default mixing * dielectric matrix)
  average eigenvalue GAMMA=   0.9482
  2.4713  2.0910  0.8109  0.8109  0.6676  0.6676  0.2907  0.3793  0.3450

 Free energy of the ion-electron system (eV)
  ---------------------------------------------------
  alpha Z        PSCENC =       228.37091057
  Ewald energy   TEWEN  =    195470.57522897
  -Hartree energ DENC   =   -217236.67242263
  -exchange      EXHF   =         0.00000000
  -V(xc)+E(xc)   XCENC  =       700.48408700
  PAW double counting   =     21841.82760513   -23517.77189828
  entropy T*S    EENTRO =        -0.01766297
  eigenvalues    EBANDS =      -836.56438374
  atomic energy  EATOM  =     23292.47908388
  Solvation  Ediel_sol  =         0.00000000
  ---------------------------------------------------
  free energy    TOTEN  =       -57.28945206 eV

  energy without entropy =      -57.27178910  energy(sigma->0) =      -57.28356441


--------------------------------------------------------------------------------------------------------




--------------------------------------- Iteration      1(  15)  ---------------------------------------


    POTLOK:  cpu time    0.2492: real time    0.2564
    SETDIJ:  cpu time    0.1874: real time    0.1893
     EDDAV:  cpu time   10.1615: real time   10.1606
       DOS:  cpu time    0.0010: real time    0.0010
    CHARGE:  cpu time    0.8968: real time    0.8992
    MIXING:  cpu time    0.0089: real time    0.0089
    --------------------------------------------
      LOOP:  cpu time   11.5048: real time   11.5155

 eigenvalue-minimisations  :  1984
 total energy-change (2. order) : 0.9938769E-03  (-0.4375168E-03)
 number of electron     187.0000018 magnetization 
 augmentation part      117.7402457 magnetization 

 Broyden mixing:
  rms(total) = 0.64761E-02    rms(broyden)= 0.64747E-02
  rms(prec ) = 0.75014E-02
  weight for this iteration     100.00

 eigenvalues of (default mixing * dielectric matrix)
  average eigenvalue GAMMA=   0.9869
  2.5961  1.5300  1.5300  1.0008  0.7800  0.7800  0.6323  0.2897  0.3831  0.3471

 Free energy of the ion-electron system (eV)
  ---------------------------------------------------
  alpha Z        PSCENC =       228.37091057
  Ewald energy   TEWEN  =    195470.57522897
  -Hartree energ DENC   =   -217237.89443902
  -exchange      EXHF   =         0.00000000
  -V(xc)+E(xc)   XCENC  =       700.39848452
  PAW double counting   =     21847.11094017   -23523.23617386
  entropy T*S    EENTRO =        -0.01772788
  eigenvalues    EBANDS =      -835.07476554
  atomic energy  EATOM  =     23292.47908388
  Solvation  Ediel_sol  =         0.00000000
  ---------------------------------------------------
  free energy    TOTEN  =       -57.28845819 eV

  energy without entropy =      -57.27073031  energy(sigma->0) =      -57.28254889


--------------------------------------------------------------------------------------------------------




--------------------------------------- Iteration      1(  16)  ---------------------------------------


    POTLOK:  cpu time    0.2503: real time    0.2575
    SETDIJ:  cpu time    0.1876: real time    0.1895
     EDDAV:  cpu time   12.8187: real time   12.8176
       DOS:  cpu time    0.0010: real time    0.0010
    CHARGE:  cpu time    0.8963: real time    0.8984
    MIXING:  cpu time    0.0092: real time    0.0092
    --------------------------------------------
      LOOP:  cpu time   14.1632: real time   14.1732

 eigenvalue-minimisations  :  2672
 total energy-change (2. order) :-0.1623771E-03  (-0.2064736E-03)
 number of electron     187.0000018 magnetization 
 augmentation part      117.7637393 magnetization 

 Broyden mixing:
  rms(total) = 0.11219E-01    rms(broyden)= 0.11219E-01
  rms(prec ) = 0.11803E-01
  weight for this iteration     100.00

 eigenvalues of (default mixing * dielectric matrix)
  average eigenvalue GAMMA=   1.0100
  2.4588  2.4588  1.5016  0.8565  0.8565  0.7852  0.6136  0.5558  0.2898  0.3856
  0.3477

 Free energy of the ion-electron system (eV)
  ---------------------------------------------------
  alpha Z        PSCENC =       228.37091057
  Ewald energy   TEWEN  =    195470.57522897
  -Hartree energ DENC   =   -217240.23714555
  -exchange      EXHF   =         0.00000000
  -V(xc)+E(xc)   XCENC  =       700.36304833
  PAW double counting   =     21846.61639669   -23522.72589867
  entropy T*S    EENTRO =        -0.01776521
  eigenvalues    EBANDS =      -832.71247957
  atomic energy  EATOM  =     23292.47908388
  Solvation  Ediel_sol  =         0.00000000
  ---------------------------------------------------
  free energy    TOTEN  =       -57.28862056 eV

  energy without entropy =      -57.27085535  energy(sigma->0) =      -57.28269883


--------------------------------------------------------------------------------------------------------




--------------------------------------- Iteration      1(  17)  ---------------------------------------


    POTLOK:  cpu time    0.2495: real time    0.2568
    SETDIJ:  cpu time    0.1876: real time    0.1895
     EDDAV:  cpu time   10.4627: real time   10.4618
       DOS:  cpu time    0.0010: real time    0.0010
    CHARGE:  cpu time    0.8959: real time    0.8980
    MIXING:  cpu time    0.0097: real time    0.0097
    --------------------------------------------
      LOOP:  cpu time   11.8064: real time   11.8169

 eigenvalue-minimisations  :  2064
 total energy-change (2. order) :-0.1144279E-05  (-0.2722974E-03)
 number of electron     187.0000018 magnetization 
 augmentation part      117.7208588 magnetization 

 Broyden mixing:
  rms(total) = 0.80251E-02    rms(broyden)= 0.80239E-02
  rms(prec ) = 0.83637E-02
  weight for this iteration     100.00

 eigenvalues of (default mixing * dielectric matrix)
  average eigenvalue GAMMA=   0.9923
  2.5858  2.5858  1.4787  0.8891  0.8891  0.7527  0.6218  0.5411  0.5411  0.2898
  0.3844  0.3476

 Free energy of the ion-electron system (eV)
  ---------------------------------------------------
  alpha Z        PSCENC =       228.37091057
  Ewald energy   TEWEN  =    195470.57522897
  -Hartree energ DENC   =   -217246.94582565
  -exchange      EXHF   =         0.00000000
  -V(xc)+E(xc)   XCENC  =       700.46031992
  PAW double counting   =     21839.60214537   -23515.86814776
  entropy T*S    EENTRO =        -0.01767940
  eigenvalues    EBANDS =      -825.94465761
  atomic energy  EATOM  =     23292.47908388
  Solvation  Ediel_sol  =         0.00000000
  ---------------------------------------------------
  free energy    TOTEN  =       -57.28862171 eV

  energy without entropy =      -57.27094231  energy(sigma->0) =      -57.28272857


--------------------------------------------------------------------------------------------------------




--------------------------------------- Iteration      1(  18)  ---------------------------------------


    POTLOK:  cpu time    0.2500: real time    0.2571
    SETDIJ:  cpu time    0.1871: real time    0.1890
     EDDAV:  cpu time   10.8952: real time   10.8942
       DOS:  cpu time    0.0010: real time    0.0010
    CHARGE:  cpu time    0.8960: real time    0.8982
    MIXING:  cpu time    0.0096: real time    0.0096
    --------------------------------------------
      LOOP:  cpu time   12.2389: real time   12.2492

 eigenvalue-minimisations  :  2176
 total energy-change (2. order) :-0.6484425E-04  (-0.3749569E-04)
 number of electron     187.0000018 magnetization 
 augmentation part      117.7183087 magnetization 

 Broyden mixing:
  rms(total) = 0.78536E-02    rms(broyden)= 0.78531E-02
  rms(prec ) = 0.81562E-02
  weight for this iteration     100.00

 eigenvalues of (default mixing * dielectric matrix)
  average eigenvalue GAMMA=   1.0269
  2.9393  2.0915  2.0915  0.8804  0.8804  0.8660  0.8660  0.6724  0.6724  0.2898
  0.3462  0.3801  0.3745

 Free energy of the ion-electron system (eV)
  ---------------------------------------------------
  alpha Z        PSCENC =       228.37091057
  Ewald energy   TEWEN  =    195470.57522897
  -Hartree energ DENC   =   -217247.93845375
  -exchange      EXHF   =         0.00000000
  -V(xc)+E(xc)   XCENC  =       700.45764597
  PAW double counting   =     21839.21362932   -23515.46951859
  entropy T*S    EENTRO =        -0.01769672
  eigenvalues    EBANDS =      -824.95951619
  atomic energy  EATOM  =     23292.47908388
  Solvation  Ediel_sol  =         0.00000000
  ---------------------------------------------------
  free energy    TOTEN  =       -57.28868655 eV

  energy without entropy =      -57.27098983  energy(sigma->0) =      -57.28278764


--------------------------------------------------------------------------------------------------------




--------------------------------------- Iteration      1(  19)  ---------------------------------------


    POTLOK:  cpu time    0.2510: real time    0.2582
    SETDIJ:  cpu time    0.1870: real time    0.1890
     EDDAV:  cpu time    9.7770: real time    9.7762
       DOS:  cpu time    0.0010: real time    0.0010
    CHARGE:  cpu time    0.8961: real time    0.8983
    MIXING:  cpu time    0.0098: real time    0.0098
    --------------------------------------------
      LOOP:  cpu time   11.1220: real time   11.1325

 eigenvalue-minimisations  :  1888
 total energy-change (2. order) :-0.9914561E-04  (-0.6320996E-04)
 number of electron     187.0000018 magnetization 
 augmentation part      117.7419734 magnetization 

 Broyden mixing:
  rms(total) = 0.19996E-02    rms(broyden)= 0.19972E-02
  rms(prec ) = 0.22664E-02
  weight for this iteration     100.00

 eigenvalues of (default mixing * dielectric matrix)
  average eigenvalue GAMMA=   1.1307
  3.5528  2.7299  2.0253  1.3336  0.9652  0.9652  0.8090  0.8090  0.6256  0.6256
  0.2898  0.3851  0.3458  0.3674

 Free energy of the ion-electron system (eV)
  ---------------------------------------------------
  alpha Z        PSCENC =       228.37091057
  Ewald energy   TEWEN  =    195470.57522897
  -Hartree energ DENC   =   -217248.51263311
  -exchange      EXHF   =         0.00000000
  -V(xc)+E(xc)   XCENC  =       700.41386547
  PAW double counting   =     21839.64054903   -23515.76585924
  entropy T*S    EENTRO =        -0.01774407
  eigenvalues    EBANDS =      -824.47218719
  atomic energy  EATOM  =     23292.47908388
  Solvation  Ediel_sol  =         0.00000000
  ---------------------------------------------------
  free energy    TOTEN  =       -57.28878570 eV

  energy without entropy =      -57.27104163  energy(sigma->0) =      -57.28287101


--------------------------------------------------------------------------------------------------------




--------------------------------------- Iteration      1(  20)  ---------------------------------------


    POTLOK:  cpu time    0.2518: real time    0.2591
    SETDIJ:  cpu time    0.1872: real time    0.1890
     EDDAV:  cpu time   10.7097: real time   10.7088
       DOS:  cpu time    0.0010: real time    0.0010
    CHARGE:  cpu time    0.8974: real time    0.8996
    MIXING:  cpu time    0.0104: real time    0.0104
    --------------------------------------------
      LOOP:  cpu time   12.0575: real time   12.0680

 eigenvalue-minimisations  :  2128
 total energy-change (2. order) :-0.3211523E-03  (-0.1187300E-04)
 number of electron     187.0000018 magnetization 
 augmentation part      117.7418942 magnetization 

 Broyden mixing:
  rms(total) = 0.16005E-02    rms(broyden)= 0.15983E-02
  rms(prec ) = 0.17239E-02
  weight for this iteration     100.00

 eigenvalues of (default mixing * dielectric matrix)
  average eigenvalue GAMMA=   1.1478
  4.3986  2.7639  1.8383  1.6095  0.9666  0.9666  0.8203  0.8203  0.6299  0.6299
  0.2898  0.4025  0.3867  0.3506  0.3434

 Free energy of the ion-electron system (eV)
  ---------------------------------------------------
  alpha Z        PSCENC =       228.37091057
  Ewald energy   TEWEN  =    195470.57522897
  -Hartree energ DENC   =   -217250.83633953
  -exchange      EXHF   =         0.00000000
  -V(xc)+E(xc)   XCENC  =       700.42109643
  PAW double counting   =     21838.01777793   -23514.10898531
  entropy T*S    EENTRO =        -0.01772059
  eigenvalues    EBANDS =      -822.19015919
  atomic energy  EATOM  =     23292.47908388
  Solvation  Ediel_sol  =         0.00000000
  ---------------------------------------------------
  free energy    TOTEN  =       -57.28910685 eV

  energy without entropy =      -57.27138626  energy(sigma->0) =      -57.28319999


--------------------------------------------------------------------------------------------------------




--------------------------------------- Iteration      1(  21)  ---------------------------------------


    POTLOK:  cpu time    0.2536: real time    0.2605
    SETDIJ:  cpu time    0.1873: real time    0.1892
     EDDAV:  cpu time   10.6617: real time   10.6607
       DOS:  cpu time    0.0010: real time    0.0010
    CHARGE:  cpu time    0.8936: real time    0.8957
    MIXING:  cpu time    0.0101: real time    0.0101
    --------------------------------------------
      LOOP:  cpu time   12.0071: real time   12.0171

 eigenvalue-minimisations  :  2112
 total energy-change (2. order) :-0.1028006E-03  (-0.2569103E-05)
 number of electron     187.0000018 magnetization 
 augmentation part      117.7400255 magnetization 

 Broyden mixing:
  rms(total) = 0.85624E-03    rms(broyden)= 0.85238E-03
  rms(prec ) = 0.97086E-03
  weight for this iteration     100.00

 eigenvalues of (default mixing * dielectric matrix)
  average eigenvalue GAMMA=   1.1954
  4.6566  2.6670  1.9456  1.9456  1.4017  0.8960  0.8960  0.8259  0.8259  0.6415
  0.6415  0.2898  0.3455  0.3859  0.3955  0.3669

 Free energy of the ion-electron system (eV)
  ---------------------------------------------------
  alpha Z        PSCENC =       228.37091057
  Ewald energy   TEWEN  =    195470.57522897
  -Hartree energ DENC   =   -217251.55380160
  -exchange      EXHF   =         0.00000000
  -V(xc)+E(xc)   XCENC  =       700.42625604
  PAW double counting   =     21837.87152383   -23513.98137924
  entropy T*S    EENTRO =        -0.01771913
  eigenvalues    EBANDS =      -821.45931297
  atomic energy  EATOM  =     23292.47908388
  Solvation  Ediel_sol  =         0.00000000
  ---------------------------------------------------
  free energy    TOTEN  =       -57.28920965 eV

  energy without entropy =      -57.27149052  energy(sigma->0) =      -57.28330327


--------------------------------------------------------------------------------------------------------




--------------------------------------- Iteration      1(  22)  ---------------------------------------


    POTLOK:  cpu time    0.2529: real time    0.2604
    SETDIJ:  cpu time    0.1874: real time    0.1892
     EDDAV:  cpu time   10.4490: real time   10.4481
       DOS:  cpu time    0.0010: real time    0.0010
    CHARGE:  cpu time    0.8938: real time    0.8960
    MIXING:  cpu time    0.0111: real time    0.0110
    --------------------------------------------
      LOOP:  cpu time   11.7952: real time   11.8057

 eigenvalue-minimisations  :  2056
 total energy-change (2. order) :-0.1745992E-03  (-0.2643386E-05)
 number of electron     187.0000018 magnetization 
 augmentation part      117.7370625 magnetization 

 Broyden mixing:
  rms(total) = 0.10242E-02    rms(broyden)= 0.10209E-02
  rms(prec ) = 0.10818E-02
  weight for this iteration     100.00

 eigenvalues of (default mixing * dielectric matrix)
  average eigenvalue GAMMA=   1.2528
  5.1188  3.0551  2.5867  1.6108  1.6108  0.9204  0.9204  0.8229  0.8229  0.7355
  0.6526  0.6526  0.2898  0.4056  0.3848  0.3455  0.3632

 Free energy of the ion-electron system (eV)
  ---------------------------------------------------
  alpha Z        PSCENC =       228.37091057
  Ewald energy   TEWEN  =    195470.57522897
  -Hartree energ DENC   =   -217252.10987836
  -exchange      EXHF   =         0.00000000
  -V(xc)+E(xc)   XCENC  =       700.42981982
  PAW double counting   =     21838.85340735   -23515.02627503
  entropy T*S    EENTRO =        -0.01770705
  eigenvalues    EBANDS =      -820.84397440
  atomic energy  EATOM  =     23292.47908388
  Solvation  Ediel_sol  =         0.00000000
  ---------------------------------------------------
  free energy    TOTEN  =       -57.28938425 eV

  energy without entropy =      -57.27167719  energy(sigma->0) =      -57.28348190


--------------------------------------------------------------------------------------------------------




--------------------------------------- Iteration      1(  23)  ---------------------------------------


    POTLOK:  cpu time    0.2547: real time    0.2617
    SETDIJ:  cpu time    0.1874: real time    0.1892
     EDDAV:  cpu time   11.4076: real time   11.4066
       DOS:  cpu time    0.0010: real time    0.0010
    CHARGE:  cpu time    0.8942: real time    0.8962
    MIXING:  cpu time    0.0108: real time    0.0108
    --------------------------------------------
      LOOP:  cpu time   12.7556: real time   12.7655

 eigenvalue-minimisations  :  2304
 total energy-change (2. order) :-0.1251948E-03  (-0.1241883E-05)
 number of electron     187.0000018 magnetization 
 augmentation part      117.7390588 magnetization 

 Broyden mixing:
  rms(total) = 0.48007E-03    rms(broyden)= 0.47323E-03
  rms(prec ) = 0.51535E-03
  weight for this iteration     100.00

 eigenvalues of (default mixing * dielectric matrix)
  average eigenvalue GAMMA=   1.2722
  5.7477  3.3302  2.5166  1.7007  1.7007  0.9565  0.9565  0.8199  0.8199  0.8385
  0.6497  0.6497  0.2898  0.3455  0.3642  0.3851  0.4140  0.4140

 Free energy of the ion-electron system (eV)
  ---------------------------------------------------
  alpha Z        PSCENC =       228.37091057
  Ewald energy   TEWEN  =    195470.57522897
  -Hartree energ DENC   =   -217252.47426235
  -exchange      EXHF   =         0.00000000
  -V(xc)+E(xc)   XCENC  =       700.42479197
  PAW double counting   =     21839.19398354   -23515.35097866
  entropy T*S    EENTRO =        -0.01770845
  eigenvalues    EBANDS =      -820.49055890
  atomic energy  EATOM  =     23292.47908388
  Solvation  Ediel_sol  =         0.00000000
  ---------------------------------------------------
  free energy    TOTEN  =       -57.28950944 eV

  energy without entropy =      -57.27180099  energy(sigma->0) =      -57.28360663


--------------------------------------------------------------------------------------------------------




--------------------------------------- Iteration      1(  24)  ---------------------------------------


    POTLOK:  cpu time    0.2547: real time    0.2619
    SETDIJ:  cpu time    0.1873: real time    0.1891
     EDDAV:  cpu time   11.1601: real time   11.1591
       DOS:  cpu time    0.0010: real time    0.0010
    CHARGE:  cpu time    0.8968: real time    0.8992
    MIXING:  cpu time    0.0120: real time    0.0120
    --------------------------------------------
      LOOP:  cpu time   12.5119: real time   12.5223

 eigenvalue-minimisations  :  2240
 total energy-change (2. order) :-0.4065811E-04  (-0.4336763E-06)
 number of electron     187.0000018 magnetization 
 augmentation part      117.7400056 magnetization 

 Broyden mixing:
  rms(total) = 0.32858E-03    rms(broyden)= 0.31854E-03
  rms(prec ) = 0.35277E-03
  weight for this iteration     100.00

 eigenvalues of (default mixing * dielectric matrix)
  average eigenvalue GAMMA=   1.3197
  5.8900  3.6082  2.2237  2.0985  2.0985  1.2335  0.9672  0.9672  0.8174  0.8174
  0.8708  0.6484  0.6484  0.2898  0.3455  0.4133  0.3638  0.3850  0.3880

 Free energy of the ion-electron system (eV)
  ---------------------------------------------------
  alpha Z        PSCENC =       228.37091057
  Ewald energy   TEWEN  =    195470.57522897
  -Hartree energ DENC   =   -217252.66352490
  -exchange      EXHF   =         0.00000000
  -V(xc)+E(xc)   XCENC  =       700.42335098
  PAW double counting   =     21839.14992145   -23515.29347596
  entropy T*S    EENTRO =        -0.01771822
  eigenvalues    EBANDS =      -820.31332686
  atomic energy  EATOM  =     23292.47908388
  Solvation  Ediel_sol  =         0.00000000
  ---------------------------------------------------
  free energy    TOTEN  =       -57.28955010 eV

  energy without entropy =      -57.27183189  energy(sigma->0) =      -57.28364403


--------------------------------------------------------------------------------------------------------




--------------------------------------- Iteration      1(  25)  ---------------------------------------


    POTLOK:  cpu time    0.2563: real time    0.2635
    SETDIJ:  cpu time    0.1876: real time    0.1894
     EDDAV:  cpu time   10.9427: real time   10.9418
       DOS:  cpu time    0.0010: real time    0.0010
    CHARGE:  cpu time    0.8936: real time    0.8958
    MIXING:  cpu time    0.0113: real time    0.0113
    --------------------------------------------
      LOOP:  cpu time   12.2926: real time   12.3029

 eigenvalue-minimisations  :  2184
 total energy-change (2. order) :-0.4702305E-04  (-0.2616822E-06)
 number of electron     187.0000018 magnetization 
 augmentation part      117.7403329 magnetization 

 Broyden mixing:
  rms(total) = 0.35594E-03    rms(broyden)= 0.34671E-03
  rms(prec ) = 0.36254E-03
  weight for this iteration     100.00

 eigenvalues of (default mixing * dielectric matrix)
  average eigenvalue GAMMA=   1.3354
  6.1393  3.9619  2.4411  2.4411  1.7333  1.5926  0.9673  0.9673  0.8170  0.8170
  0.8268  0.6535  0.6535  0.2898  0.5068  0.4268  0.3455  0.3846  0.3650  0.3777

 Free energy of the ion-electron system (eV)
  ---------------------------------------------------
  alpha Z        PSCENC =       228.37091057
  Ewald energy   TEWEN  =    195470.57522897
  -Hartree energ DENC   =   -217252.93685729
  -exchange      EXHF   =         0.00000000
  -V(xc)+E(xc)   XCENC  =       700.42363332
  PAW double counting   =     21838.92388781   -23515.05249921
  entropy T*S    EENTRO =        -0.01772200
  eigenvalues    EBANDS =      -820.05526318
  atomic energy  EATOM  =     23292.47908388
  Solvation  Ediel_sol  =         0.00000000
  ---------------------------------------------------
  free energy    TOTEN  =       -57.28959712 eV

  energy without entropy =      -57.27187513  energy(sigma->0) =      -57.28368979


--------------------------------------------------------------------------------------------------------




[...]
     38      -4.5647      2.00000
     39      -4.5571      2.00000
     40      -4.4576      2.00000
     41      -4.4179      2.00000
     42      -4.3737      2.00000
     43      -4.3460      2.00000
     44      -4.3434      2.00000
     45      -4.2091      2.00000
     46      -4.1562      2.00000
     47      -4.1081      2.00000
     48      -4.0998      2.00000
     49      -4.0424      2.00000
     50      -4.0154      2.00000
     51      -4.0043      2.00000
     52      -3.9736      2.00000
     53      -3.9544      2.00000
     54      -3.9484      2.00000
     55      -3.9169      2.00000
     56      -3.8879      2.00000
     57      -3.8735      2.00000
     58      -3.8488      2.00000
     59      -3.8086      2.00000
     60      -3.7898      2.00000
     61      -3.7811      2.00000
     62      -3.7612      2.00000
     63      -3.6892      2.00000
     64      -3.6624      2.00000
     65      -3.6365      2.00000
     66      -3.6280      2.00000
     67      -3.6133      2.00000
     68      -3.5856      2.00000
     69      -3.5625      2.00000
     70      -3.5083      2.00000
     71      -3.4828      2.00000
     72      -3.4811      2.00000
     73      -3.4575      2.00000
     74      -3.4522      2.00000
     75      -3.4292      2.00000
     76      -3.4173      2.00000
     77      -3.4074      2.00000
     78      -3.3483      2.00000
     79      -3.3391      2.00000
     80      -3.3317      2.00000
     81      -3.3145      2.00000
     82      -3.2831      2.00000
     83      -3.2727      2.00000
     84      -3.2669      2.00000
     85      -3.1221      2.00000
     86      -3.0567      2.00000
     87      -3.0556      2.00000
     88      -3.0394      2.00000
     89      -3.0304      2.00000
     90      -2.9890      2.00000
     91      -2.7546      2.00000
     92      -2.6733      2.00000
     93      -2.3349      2.00000
     94      -1.8526      2.00002
     95      -1.4603      0.24909
     96      -1.2890     -0.00730
     97      -0.6746     -0.00000
     98      -0.0692     -0.00000
     99       0.5482     -0.00000
    100       0.8339     -0.00000
    101       1.3472      0.00000
    102       2.0244      0.00000
    103       2.5714      0.00000
    104       2.8581      0.00000
    105       3.2713      0.00000
    106       3.5318      0.00000
    107       3.5441      0.00000
    108       3.6285      0.00000
    109       4.0298      0.00000
    110       4.1934      0.00000
    111       4.3520      0.00000
    112       4.4240      0.00000

 k-point     8 :      -0.3750    0.3750    0.0000
  band No.  band energies     occupation 
      1      -8.6221      2.00000
      2      -7.4523      2.00000
      3      -7.4187      2.00000
      4      -7.2336      2.00000
      5      -6.6066      2.00000
      6      -6.4453      2.00000
      7      -6.3979      2.00000
      8      -6.0490      2.00000
      9      -5.9580      2.00000
     10      -5.9147      2.00000
     11      -5.7217      2.00000
     12      -5.5459      2.00000
     13      -5.5420      2.00000
     14      -5.5068      2.00000
     15      -5.4793      2.00000
     16      -5.4130      2.00000
     17      -5.3932      2.00000
     18      -5.3921      2.00000
     19      -5.3764      2.00000
     20      -5.3092      2.00000
     21      -5.2754      2.00000
     22      -5.2701      2.00000
     23      -5.2249      2.00000
     24      -5.0579      2.00000
     25      -5.0403      2.00000
     26      -4.9925      2.00000
     27      -4.9842      2.00000
     28      -4.9755      2.00000
     29      -4.8912      2.00000
     30      -4.8653      2.00000
     31      -4.8415      2.00000
     32      -4.7825      2.00000
     33      -4.7680      2.00000
     34      -4.7288      2.00000
     35      -4.6889      2.00000
     36      -4.6764      2.00000
     37      -4.6111      2.00000
     38      -4.5647      2.00000
     39      -4.5571      2.00000
     40      -4.4576      2.00000
     41      -4.4179      2.00000
     42      -4.3737      2.00000
     43      -4.3460      2.00000
     44      -4.3434      2.00000
     45      -4.2091      2.00000
     46      -4.1562      2.00000
     47      -4.1081      2.00000
     48      -4.0998      2.00000
     49      -4.0424      2.00000
     50      -4.0154      2.00000
     51      -4.0043      2.00000
     52      -3.9736      2.00000
     53      -3.9544      2.00000
     54      -3.9484      2.00000
     55      -3.9169      2.00000
     56      -3.8879      2.00000
     57      -3.8735      2.00000
     58      -3.8488      2.00000
     59      -3.8086      2.00000
     60      -3.7898      2.00000
     61      -3.7811      2.00000
     62      -3.7612      2.00000
     63      -3.6892      2.00000
     64      -3.6624      2.00000
     65      -3.6365      2.00000
     66      -3.6280      2.00000
     67      -3.6133      2.00000
     68      -3.5856      2.00000
     69      -3.5625      2.00000
     70      -3.5083      2.00000
     71      -3.4828      2.00000
     72      -3.4811      2.00000
     73      -3.4575      2.00000
     74      -3.4522      2.00000
     75      -3.4292      2.00000
     76      -3.4173      2.00000
     77      -3.4074      2.00000
     78      -3.3483      2.00000
     79      -3.3391      2.00000
     80      -3.3317      2.00000
     81      -3.3145      2.00000
     82      -3.2831      2.00000
     83      -3.2727      2.00000
     84      -3.2669      2.00000
     85      -3.1221      2.00000
     86      -3.0567      2.00000
     87      -3.0556      2.00000
     88      -3.0394      2.00000
     89      -3.0304      2.00000
     90      -2.9890      2.00000
     91      -2.7546      2.00000
     92      -2.6733      2.00000
     93      -2.3349      2.00000
     94      -1.8526      2.00002
     95      -1.4603      0.24909
     96      -1.2890     -0.00730
     97      -0.6746     -0.00000
     98      -0.0692     -0.00000
     99       0.5482     -0.00000
    100       0.8339     -0.00000
    101       1.3472      0.00000
    102       2.0244      0.00000
    103       2.5714      0.00000
    104       2.8581      0.00000
    105       3.2713      0.00000
    106       3.5318      0.00000
    107       3.5441      0.00000
    108       3.6285      0.00000
    109       4.0298      0.00000
    110       4.1934      0.00000
    111       4.3520      0.00000
    112       4.4240      0.00000


--------------------------------------------------------------------------------------------------------


 soft charge-density along one line, spin component           1
         0         1         2         3         4         5         6         7         8         9
 total charge-density along one line
 
 pseudopotential strength for first ion, spin component:           1
 -9.187  -0.000  -0.000  -0.000   0.000   0.021   0.000   0.000
 -0.000  -9.177  -0.000   0.000   0.000   0.000   0.011   0.000
 -0.000  -0.000  -9.162   0.000  -0.002   0.000   0.000  -0.001
 -0.000   0.000   0.000  -9.174   0.000   0.000  -0.000  -0.000
  0.000   0.000  -0.002   0.000  -9.207  -0.000  -0.000   0.001
  0.021   0.000   0.000   0.000  -0.000   6.980  -0.000  -0.000
  0.000   0.011   0.000  -0.000  -0.000  -0.000   6.988  -0.000
  0.000   0.000  -0.001  -0.000   0.001  -0.000  -0.000   6.997
  0.000  -0.000  -0.000   0.008  -0.000  -0.000   0.000   0.000
 -0.000  -0.000   0.001  -0.000   0.035   0.000   0.000  -0.001
 -0.000   0.000  -0.006   0.000  -0.000   0.000  -0.000   0.003
 -0.000   0.000  -0.011   0.000  -0.000   0.000  -0.000   0.005
 -0.000  -0.014   0.000   0.000   0.000   0.000   0.012  -0.000
  0.000  -0.000  -0.016  -0.000  -0.000  -0.000   0.000   0.012
 -0.000   0.000  -0.000  -0.014   0.000   0.000  -0.000   0.000
 -0.000  -0.016   0.000   0.000   0.000   0.000   0.013  -0.000
  0.000  -0.000  -0.018  -0.000  -0.000  -0.000  -0.000   0.013
 -0.000   0.000  -0.000  -0.016   0.000  -0.000  -0.000   0.000
 total augmentation occupancy for first ion, spin component:           1
  1.925  -0.000  -0.000  -0.000   0.000  -0.032   0.000  -0.000   0.000   0.000  -0.000  -0.000  -0.000   0.000   0.000   0.000
 -0.000   1.928   0.000  -0.000  -0.000   0.000  -0.024   0.000  -0.000   0.000   0.000   0.000   0.030   0.000   0.000  -0.017
 -0.000   0.000   1.939  -0.000  -0.000  -0.000   0.000  -0.033  -0.000   0.000  -0.003   0.012   0.000   0.043  -0.000   0.000
 -0.000  -0.000  -0.000   1.929   0.000   0.000  -0.000  -0.000  -0.024  -0.000  -0.000   0.000  -0.000  -0.000   0.028  -0.000
  0.000  -0.000  -0.000   0.000   1.910  -0.000   0.000   0.000  -0.000  -0.006   0.004  -0.001   0.000  -0.001   0.000   0.000
 -0.032   0.000  -0.000   0.000  -0.000   0.011  -0.000  -0.000  -0.000  -0.000   0.000   0.000   0.000  -0.000  -0.000  -0.000
  0.000  -0.024   0.000  -0.000   0.000  -0.000   0.009  -0.000   0.000  -0.000   0.000  -0.000   0.021  -0.000  -0.000  -0.001
 -0.000   0.000  -0.033  -0.000   0.000  -0.000  -0.000   0.010   0.000   0.000  -0.029   0.001  -0.000   0.017   0.000   0.000
  0.000  -0.000  -0.000  -0.024  -0.000  -0.000   0.000   0.000   0.009   0.000   0.000  -0.000  -0.000   0.000   0.022   0.000
  0.000   0.000   0.000  -0.000  -0.006  -0.000  -0.000   0.000   0.000   0.012  -0.001  -0.000  -0.000   0.000   0.000  -0.000
 -0.000   0.000  -0.003  -0.000   0.004   0.000   0.000  -0.029   0.000  -0.001   1.617  -0.125   0.000   0.160  -0.000  -0.000
 -0.000   0.000   0.012   0.000  -0.001   0.000  -0.000   0.001  -0.000  -0.000  -0.125   0.015   0.000  -0.023  -0.000   0.000
 -0.000   0.030   0.000  -0.000   0.000   0.000   0.021  -0.000  -0.000  -0.000   0.000   0.000   0.176  -0.000   0.000  -0.011
  0.000   0.000   0.043  -0.000  -0.001  -0.000  -0.000   0.017   0.000   0.000   0.160  -0.023  -0.000   0.106   0.000   0.000
  0.000   0.000  -0.000   0.028   0.000  -0.000  -0.000   0.000   0.022   0.000  -0.000  -0.000   0.000   0.000   0.180  -0.000
  0.000  -0.017   0.000  -0.000   0.000  -0.000  -0.001   0.000   0.000  -0.000  -0.000   0.000  -0.011   0.000  -0.000   0.001
 -0.000  -0.000  -0.020   0.000   0.000   0.000   0.000  -0.001  -0.000   0.000  -0.022   0.002   0.000  -0.008  -0.000   0.000
 -0.000  -0.000  -0.000  -0.017   0.000   0.000   0.000  -0.000  -0.001   0.000  -0.000   0.000  -0.000  -0.000  -0.011   0.000


------------------------ aborting loop because EDIFF is reached ----------------------------------------


    CHARGE:  cpu time    0.8890: real time    0.8910
    FORLOC:  cpu time    0.0444: real time    0.0444
    FORNL :  cpu time    3.9920: real time    4.0031
    STRESS:  cpu time   12.2067: real time   12.2409
    FORCOR:  cpu time    0.2949: real time    0.3003
    FORHAR:  cpu time    0.0945: real time    0.0959
    MIXING:  cpu time    0.0075: real time    0.0075
    OFIELD:  cpu time    0.0001: real time    0.0001

  FORCE on cell =-STRESS in cart. coord.  units (eV):
  Direction    XX          YY          ZZ          XY          YZ          ZX
  --------------------------------------------------------------------------------------
  Alpha Z   228.37091   228.37091   228.37091
  Ewald  208019.09762208019.09548************    -0.00028     0.09017    -0.92423
  Hartree213823.98486213823.98297************    -0.00013     0.04944    -0.50712
  E(xc)   -1085.24521 -1085.24521 -1086.57742    -0.00000     0.00007    -0.00071
  Local  ************************427623.83396     0.00040    -0.13721     1.40670
  n-local  -363.76274  -363.76255  -367.81322     0.00002     0.00146    -0.01399
  augment  1604.22345  1604.22347  1606.62434     0.00001    -0.00118     0.01249
  Kinetic  1569.79918  1569.79921  1573.51076     0.00001    -0.00066     0.00678
  Fock        0.00000     0.00000     0.00000     0.00000     0.00000     0.00000
  -------------------------------------------------------------------------------------
  Total      -5.03393    -5.03371    -2.78879     0.00002     0.00209    -0.02008
  in kB      -8.63183    -8.63144    -4.78202     0.00003     0.00358    -0.03443
  external pressure =       -7.35 kB  Pullay stress =        0.00 kB


 VOLUME and BASIS-vectors are now :
 -----------------------------------------------------------------------------
  energy-cutoff  :      380.00
  volume of cell :      934.36
      direct lattice vectors                 reciprocal lattice vectors
     5.147737367  0.000000000  0.000000000     0.194260105  0.000000000  0.000000000
     0.000000000  5.147737367  0.000000000     0.000000000  0.194260105  0.000000000
     0.000000000  0.000000000 35.260000000     0.000000000  0.000000000  0.028360749

  length of vectors
     5.147737367  5.147737367 35.260000000     0.194260105  0.194260105  0.028360749


 FORCES acting on ions
    electron-ion (+dipol)            ewald-force                    non-local-force                 convergence-correction
 -----------------------------------------------------------------------------------------------
   0.476E-02 0.272E-03 0.412E+04   -.501E-02 -.215E-03 -.412E+04   0.232E-03 -.640E-04 -.382E+01   0.425E-04 0.555E-05 0.110E-02
   -.228E-02 0.215E-03 0.412E+04   0.245E-02 -.230E-03 -.412E+04   -.123E-03 0.112E-04 -.358E+01   -.539E-04 0.263E-05 0.101E-02
   0.532E-02 -.508E-03 0.412E+04   -.486E-02 0.464E-03 -.412E+04   -.474E-03 0.425E-04 -.360E+01   0.697E-04 -.539E-05 0.117E-02
   -.295E-02 -.461E-03 0.412E+04   0.237E-02 0.485E-03 -.412E+04   0.647E-03 -.255E-04 -.382E+01   -.800E-04 -.221E-05 0.109E-02
   0.401E+01 -.408E+01 0.160E+04   -.414E+01 0.421E+01 -.160E+04   0.924E-01 -.900E-01 -.450E+00   0.661E-04 -.172E-03 0.130E-02
   -.417E+01 -.408E+01 0.160E+04   0.430E+01 0.421E+01 -.160E+04   -.874E-01 -.905E-01 -.452E+00   -.185E-03 -.809E-04 0.129E-02
   0.401E+01 0.410E+01 0.160E+04   -.414E+01 -.423E+01 -.160E+04   0.925E-01 0.895E-01 -.450E+00   0.563E-04 0.182E-03 0.130E-02
   -.417E+01 0.409E+01 0.160E+04   0.430E+01 -.423E+01 -.160E+04   -.875E-01 0.900E-01 -.452E+00   -.175E-03 0.916E-04 0.130E-02
   0.119E-01 -.329E-02 -.987E+03   -.115E-01 0.315E-02 0.988E+03   -.309E-02 0.227E-03 -.669E+00   0.161E-02 -.502E-04 0.523E-03
   0.538E-01 -.462E-02 -.102E+04   -.525E-01 0.449E-02 0.102E+04   -.333E-02 0.306E-03 -.625E+00   0.152E-02 -.134E-03 0.209E-03
   0.236E-01 -.257E-02 -.959E+03   -.226E-01 0.248E-02 0.957E+03   -.424E-02 0.425E-03 0.123E+01   0.218E-02 -.240E-03 -.568E-03
   0.340E-01 -.191E-02 -.987E+03   -.327E-01 0.186E-02 0.988E+03   -.255E-02 0.308E-03 -.669E+00   0.809E-03 -.146E-03 0.467E-03
   0.640E+02 -.639E+02 -.353E+04   -.642E+02 0.642E+02 0.352E+04   0.214E+00 -.217E+00 0.255E+01   0.219E-02 -.130E-02 -.142E-02
   -.639E+02 -.639E+02 -.353E+04   0.641E+02 0.642E+02 0.352E+04   -.219E+00 -.216E+00 0.254E+01   0.614E-03 -.432E-03 0.258E-02
   0.640E+02 0.639E+02 -.353E+04   -.642E+02 -.641E+02 0.352E+04   0.214E+00 0.217E+00 0.255E+01   0.208E-02 0.998E-03 -.958E-03
   -.639E+02 0.639E+02 -.353E+04   0.641E+02 -.642E+02 0.352E+04   -.219E+00 0.216E+00 0.254E+01   0.682E-03 0.164E-03 0.299E-02
   0.671E-01 -.522E-02 -.484E+04   -.649E-01 0.505E-02 0.483E+04   -.162E-02 0.138E-03 0.759E+01   -.138E-03 -.224E-04 -.829E-03
 -----------------------------------------------------------------------------------------------
   0.204E-02 -.163E-03 -.453E+00   -.104E-12 -.144E-12 -.100E-10   -.138E-01 0.136E-02 0.432E+00   0.113E-01 -.114E-02 0.126E-01
 
 
 POSITION                                       TOTAL-FORCE (eV/Angst)
 -----------------------------------------------------------------------------------
      1.28693      1.28693     35.15600         0.000055     -0.000004      0.259881
      3.86080      1.28693     35.15600         0.000031     -0.000005      0.319954
      1.28693      3.86080     35.15600         0.000079     -0.000010      0.252888
      3.86080      3.86080     35.15600         0.000022     -0.000007      0.259878
      0.00000      0.00000      1.71600        -0.038605      0.040329     -0.273486
      2.57387      0.00000      1.71600         0.042372      0.040274     -0.274172
      0.00000      2.57387      1.71600        -0.038600     -0.040704     -0.273551
      2.57387      2.57387      1.71600         0.042367     -0.040650     -0.274237
      1.28817      1.28684      3.52299        -0.001013      0.000040      0.000662
      3.86183      1.28683      3.54709        -0.000522      0.000044     -0.000296
      1.28807      3.86069      3.50868        -0.000999      0.000095     -0.000223
      3.86174      3.86068      3.52299        -0.000405      0.000107      0.000648
     -0.00732      0.00890      5.30221        -0.000782     -0.000369      0.001505
      2.58463      0.00882      5.30290        -0.001830     -0.000407      0.000388
     -0.00732      2.56462      5.30227        -0.000764      0.000654      0.001410
      2.58462      2.56471      5.30296        -0.001839      0.000675      0.000274
      1.28764      3.86073      7.17622         0.000433     -0.000062     -0.001525
 -----------------------------------------------------------------------------------
    total drift:                               -0.000509      0.000049     -0.007973


--------------------------------------------------------------------------------------------------------



  FREE ENERGIE OF THE ION-ELECTRON SYSTEM (eV)
  ---------------------------------------------------
  free  energy   TOTEN  =       -57.33408834 eV

  energy  without entropy=      -57.31763465  energy(sigma->0) =      -57.32860378
 
 d Force = 0.3251253E-05[ 0.145E-05, 0.505E-05]  d Energy = 0.2938701E-05 0.313E-06
 d Force = 0.1239984E+01[ 0.124E+01, 0.124E+01]  d Ewald  = 0.1239984E+01 0.201E-08


--------------------------------------------------------------------------------------------------------


    POTLOK:  cpu time    0.4391: real time    0.4480


--------------------------------------------------------------------------------------------------------


 stress matrix after NEB project (eV)
     -5.03393      0.00002     -0.02008
      0.00002     -5.03371      0.00209
     -0.02008      0.00209     -2.78879
  FORCES: max atom, RMS     0.001978    0.001073
  FORCE total and by dimension    0.004426    0.001839
  Stress total and by dimension    7.645707    5.033934
 Conjugate gradient step on ions:
 trial-energy change:   -0.000003  1 .order   -0.000003   -0.000005   -0.000001
  (g-gl).g = 0.141E-05      g.g   = 0.159E-05  gl.gl    = 0.151E-04
 g(Force)  = 0.159E-05   g(Stress)= 0.000E+00 ortho     = 0.170E-06
 gamma     =   0.09317
 trial     =   3.14181
 opt step  =   4.40455  (harmonic =   4.40455) maximal distance =0.00034845
 next E    =   -57.334089   (d E  =  -0.00000)


--------------------------------------------------------------------------------------------------------


  
 reached required accuracy - stopping structural energy minimisation
     LOOP+:  cpu time   82.7256: real time   82.8523
    4ORBIT:  cpu time    0.0001: real time    0.0117

 total amount of memory used by VASP MPI-rank0   234582. kBytes
=======================================================================

   base      :      30000. kBytes
   nonlr-proj:      16576. kBytes
   fftplans  :      85862. kBytes
   grid      :      44250. kBytes
   one-center:        264. kBytes
   wavefun   :      57630. kBytes
 
  
  
 General timing and accounting informations for this job:
 ========================================================
  
                  Total CPU time used (sec):     3358.531
                            User time (sec):     3340.621
                          System time (sec):       17.910
                         Elapsed time (sec):     3363.985
  
                   Maximum memory used (kb):      416328.
                   Average memory used (kb):           0.
  
                          Minor page faults:      1007000
                          Major page faults:          301
                 Voluntary context switches:       111778
