WARNING: release_mt library was used but no multi-ep feature was enabled. Please use release library instead.
 running on   20 total cores
 each image running on    4 cores
 distrk:  each k-point on    4 cores,    1 groups
 distr:  one band on    1 cores,    4 groups
 vasp.6.1.0 28Jan20 (build May 12 2023 01:18:31) complex                        
  
 01/POSCAR found :  2 types and      17 ions
 scaLAPACK will be used
 LDA part: xc-table for Pade appr. of Perdew
 00/POSCAR found :  2 types and      17 ions
 06/POSCAR found :  2 types and      17 ions
 Jacobian:    15.6764062845614     
 00/POSCAR found :  2 types and      17 ions
 06/POSCAR found :  2 types and      17 ions
 POSCAR, INCAR and KPOINTS ok, starting setup
 FFT: planning ...
 WAVECAR not read
 entering main loop
       N       E                     dE             d eps       ncg     rms          rms(c)
DAV:   1     0.150609647148E+04    0.15061E+04   -0.62963E+04  1792   0.135E+03
DAV:   2     0.733207421231E+02   -0.14328E+04   -0.13790E+04  1800   0.365E+02
DAV:   3    -0.611663199648E+02   -0.13449E+03   -0.12264E+03  2008   0.161E+02
DAV:   4    -0.695870532541E+02   -0.84207E+01   -0.82756E+01  2232   0.478E+01
DAV:   5    -0.697962076353E+02   -0.20915E+00   -0.20887E+00  2240   0.657E+00    0.286E+01
DAV:   6    -0.631332813657E+02    0.66629E+01   -0.15440E+02  1984   0.128E+02    0.156E+01
DAV:   7    -0.570603568569E+02    0.60729E+01   -0.30305E+01  2144   0.822E+01    0.435E+00
DAV:   8    -0.572243014432E+02   -0.16394E+00   -0.60919E+00  2240   0.415E+01    0.273E+00
DAV:   9    -0.572473462285E+02   -0.23045E-01   -0.15818E+00  2280   0.199E+01    0.244E+00
DAV:  10    -0.572139454770E+02    0.33401E-01   -0.63074E-01  2144   0.200E+01    0.170E+00
DAV:  11    -0.571594648302E+02    0.54481E-01   -0.54495E-01  2560   0.167E+01    0.607E-01
DAV:  12    -0.571501964570E+02    0.92684E-02   -0.19058E-01  2656   0.708E+00    0.268E-01
DAV:  13    -0.571533305396E+02   -0.31341E-02   -0.58120E-02  2016   0.294E+00    0.216E-01
DAV:  14    -0.571534797543E+02   -0.14921E-03   -0.11268E-02  2192   0.181E+00    0.253E-01
DAV:  15    -0.571523891326E+02    0.10906E-02   -0.49901E-03  1952   0.106E+00    0.644E-02
DAV:  16    -0.571526079911E+02   -0.21886E-03   -0.23644E-03  2544   0.589E-01    0.120E-01
DAV:  17    -0.571525073483E+02    0.10064E-03   -0.25211E-03  2000   0.644E-01    0.618E-02
DAV:  18    -0.571526626560E+02   -0.15531E-03   -0.54429E-04  2224   0.301E-01    0.902E-02
DAV:  19    -0.571526683607E+02   -0.57047E-05   -0.75531E-04  1920   0.342E-01    0.163E-02
DAV:  20    -0.571529606722E+02   -0.29231E-03   -0.11512E-04  2312   0.155E-01    0.154E-02
DAV:  21    -0.571530837920E+02   -0.12312E-03   -0.28046E-05  2096   0.106E-01    0.958E-03
DAV:  22    -0.571532484970E+02   -0.16471E-03   -0.18118E-05  2336   0.563E-02    0.753E-03
DAV:  23    -0.571533660286E+02   -0.11753E-03   -0.73718E-06  2368   0.459E-02    0.608E-03
DAV:  24    -0.571534555412E+02   -0.89513E-04   -0.69273E-06  2368   0.354E-02    0.303E-03
DAV:  25    -0.571535143069E+02   -0.58766E-04   -0.46342E-06  2032   0.250E-02    0.657E-03
DAV:  26    -0.571535369792E+02   -0.22672E-04   -0.16795E-06  2024   0.183E-02    0.380E-03
DAV:  27    -0.571535508277E+02   -0.13848E-04   -0.20169E-06  1896   0.162E-02    0.200E-03
DAV:  28    -0.571535567462E+02   -0.59185E-05   -0.29035E-07  1376   0.808E-03    0.155E-03
DAV:  29    -0.571535664860E+02   -0.97398E-05   -0.15874E-07  1120   0.580E-03    0.168E-03
DAV:  30    -0.571535698480E+02   -0.33620E-05   -0.96730E-08  1200   0.406E-03    0.152E-03
DAV:  31    -0.571535720224E+02   -0.21744E-05   -0.51050E-08  1120   0.244E-03    0.147E-03
DAV:  32    -0.571535728706E+02   -0.84826E-06   -0.27535E-08  1152   0.187E-03    0.146E-03
DAV:  33    -0.571535735538E+02   -0.68321E-06   -0.19992E-08  1088   0.133E-03    0.147E-03
DAV:  34    -0.571535737225E+02   -0.16869E-06   -0.11378E-08  1152   0.124E-03    0.145E-03
DAV:  35    -0.571535737924E+02   -0.69846E-07   -0.59258E-09  1096   0.801E-04
   1 F= -.57153574E+02 E0= -.57148197E+02  d E =-.571536E+02
quench:  g(F)=  0.000E+00 g(S)=  0.000E+00 dE (1.order)= 0.000E+00
 bond charge predicted
       N       E                     dE             d eps       ncg     rms          rms(c)
DAV:   1    -0.571669755232E+02   -0.13402E-01   -0.99159E-01  1840   0.293E+00    0.941E-02
DAV:   2    -0.571687075460E+02   -0.17320E-02   -0.18075E-02  2672   0.899E-01    0.856E-02
DAV:   3    -0.571686918783E+02    0.15668E-04   -0.60139E-04  2032   0.421E-01    0.567E-02
DAV:   4    -0.571686887570E+02    0.31213E-05   -0.23888E-04  2016   0.430E-01    0.419E-02
DAV:   5    -0.571686891736E+02   -0.41657E-06   -0.37909E-04  2304   0.487E-01    0.250E-02
DAV:   6    -0.571686708801E+02    0.18293E-04   -0.28518E-04  2616   0.410E-01    0.120E-02
DAV:   7    -0.571686680392E+02    0.28410E-05   -0.44612E-05  3096   0.144E-01    0.472E-03
DAV:   8    -0.571686685066E+02   -0.46740E-06   -0.91259E-06  2016   0.238E-02    0.430E-03
DAV:   9    -0.571686681615E+02    0.34503E-06   -0.12657E-06  2048   0.187E-02    0.295E-03
DAV:  10    -0.571686680921E+02    0.69413E-07   -0.16444E-06  2672   0.184E-02    0.234E-03
DAV:  11    -0.571686680062E+02    0.85885E-07   -0.30013E-07  1392   0.116E-02
   2 F= -.57168668E+02 E0= -.57163348E+02  d E =-.150942E-01
quench:  g(F)=  0.000E+00 g(S)=  0.000E+00 dE (1.order)= 0.000E+00
 bond charge predicted
       N       E                     dE             d eps       ncg     rms          rms(c)
DAV:   1    -0.571849796892E+02   -0.16312E-01   -0.34709E+00  1856   0.550E+00    0.181E-01
DAV:   2    -0.571915977193E+02   -0.66180E-02   -0.69918E-02  2656   0.203E+00    0.199E-01
DAV:   3    -0.571914002152E+02    0.19750E-03   -0.34596E-03  2032   0.117E+00    0.114E-01
DAV:   4    -0.571914046248E+02   -0.44096E-05   -0.12781E-03  2080   0.811E-01    0.911E-02
DAV:   5    -0.571914301032E+02   -0.25478E-04   -0.22213E-03  2160   0.114E+00    0.663E-02
DAV:   6    -0.571913018389E+02    0.12826E-03   -0.11388E-03  2648   0.847E-01    0.181E-02
DAV:   7    -0.571913106970E+02   -0.88581E-05   -0.18923E-04  2624   0.213E-01    0.122E-02
DAV:   8    -0.571913108172E+02   -0.12026E-06   -0.41381E-05  2000   0.804E-02    0.999E-03
DAV:   9    -0.571913099153E+02    0.90192E-06   -0.11856E-05  2032   0.544E-02    0.566E-03
DAV:  10    -0.571913094427E+02    0.47262E-06   -0.56705E-06  3176   0.436E-02    0.251E-03
DAV:  11    -0.571913093163E+02    0.12636E-06   -0.15970E-06  2432   0.265E-02    0.160E-03
DAV:  12    -0.571913094181E+02   -0.10182E-06   -0.31507E-07  1368   0.953E-03    0.156E-03
DAV:  13    -0.571913095096E+02   -0.91488E-07   -0.10211E-07  1072   0.543E-03
   3 F= -.57191310E+02 E0= -.57186091E+02  d E =-.226415E-01
quench:  g(F)=  0.000E+00 g(S)=  0.000E+00 dE (1.order)= 0.000E+00
 bond charge predicted
       N       E                     dE             d eps       ncg     rms          rms(c)
DAV:   1    -0.571996692813E+02   -0.83599E-02   -0.61669E+00  1840   0.738E+00    0.235E-01
DAV:   2    -0.572121152056E+02   -0.12446E-01   -0.13195E-01  2688   0.291E+00    0.284E-01
DAV:   3    -0.572115681009E+02    0.54710E-03   -0.66539E-03  2016   0.168E+00    0.153E-01
DAV:   4    -0.572115520624E+02    0.16039E-04   -0.23345E-03  2352   0.103E+00    0.129E-01
DAV:   5    -0.572115238861E+02    0.28176E-04   -0.33935E-03  2112   0.141E+00    0.874E-02
DAV:   6    -0.572113448151E+02    0.17907E-03   -0.17839E-03  2640   0.104E+00    0.299E-02
DAV:   7    -0.572113662919E+02   -0.21477E-04   -0.41012E-04  2608   0.317E-01    0.190E-02
DAV:   8    -0.572113651994E+02    0.10925E-05   -0.10210E-04  1984   0.134E-01    0.168E-02
DAV:   9    -0.572113633587E+02    0.18407E-05   -0.32159E-05  2032   0.881E-02    0.920E-03
DAV:  10    -0.572113619401E+02    0.14186E-05   -0.13803E-05  2816   0.765E-02    0.362E-03
DAV:  11    -0.572113618230E+02    0.11712E-06   -0.35490E-06  2672   0.372E-02    0.173E-03
DAV:  12    -0.572113619510E+02   -0.12798E-06   -0.62793E-07  1856   0.133E-02    0.165E-03
DAV:  13    -0.572113620923E+02   -0.14130E-06   -0.20089E-07  1088   0.794E-03    0.139E-03
DAV:  14    -0.572113624031E+02   -0.31081E-06   -0.58535E-08  1072   0.376E-03    0.136E-03
DAV:  15    -0.572113625905E+02   -0.18739E-06   -0.23568E-08  1120   0.221E-03    0.135E-03
DAV:  16    -0.572113628271E+02   -0.23663E-06   -0.15616E-08  1072   0.173E-03    0.134E-03
DAV:  17    -0.572113631072E+02   -0.28012E-06   -0.10894E-08  1072   0.106E-03    0.133E-03
DAV:  18    -0.572113633750E+02   -0.26775E-06   -0.95296E-09  1088   0.101E-03    0.133E-03
DAV:  19    -0.572113635090E+02   -0.13408E-06   -0.60804E-09  1088   0.912E-04    0.133E-03
DAV:  20    -0.572113636290E+02   -0.11998E-06   -0.43909E-09  1056   0.477E-04    0.133E-03
DAV:  21    -0.572113636826E+02   -0.53573E-07   -0.20924E-09  1056   0.441E-04
   4 F= -.57211364E+02 E0= -.57206258E+02  d E =-.200542E-01
quench:  g(F)=  0.000E+00 g(S)=  0.000E+00 dE (1.order)= 0.000E+00
 bond charge predicted
       N       E                     dE             d eps       ncg     rms          rms(c)
DAV:   1    -0.572093669068E+02    0.19967E-02   -0.74539E+00  1840   0.829E+00    0.224E-01
DAV:   2    -0.572242527808E+02   -0.14886E-01   -0.15639E-01  2704   0.294E+00    0.291E-01
DAV:   3    -0.572236175081E+02    0.63527E-03   -0.66754E-03  2048   0.163E+00    0.161E-01
DAV:   4    -0.572235435961E+02    0.73912E-04   -0.21542E-03  2416   0.100E+00    0.142E-01
DAV:   5    -0.572233914995E+02    0.15210E-03   -0.26125E-03  2240   0.120E+00    0.876E-02
DAV:   6    -0.572232569717E+02    0.13453E-03   -0.18334E-03  3024   0.932E-01    0.392E-02
DAV:   7    -0.572232632992E+02   -0.63276E-05   -0.46626E-04  2288   0.447E-01    0.213E-02
DAV:   8    -0.572232669607E+02   -0.36615E-05   -0.18553E-04  1968   0.188E-01    0.194E-02
DAV:   9    -0.572232643110E+02    0.26497E-05   -0.46243E-05  2016   0.965E-02    0.979E-03
DAV:  10    -0.572232625665E+02    0.17445E-05   -0.16014E-05  2512   0.861E-02    0.480E-03
DAV:  11    -0.572232622845E+02    0.28207E-06   -0.40936E-06  2336   0.400E-02    0.186E-03
DAV:  12    -0.572232623048E+02   -0.20384E-07   -0.84485E-07  2000   0.155E-02
   5 F= -.57223262E+02 E0= -.57218206E+02  d E =-.118986E-01
quench:  g(F)=  0.000E+00 g(S)=  0.000E+00 dE (1.order)= 0.000E+00
 bond charge predicted
       N       E                     dE             d eps       ncg     rms          rms(c)
DAV:   1    -0.572198682197E+02    0.33941E-02   -0.53954E+00  1840   0.730E+00    0.152E-01
DAV:   2    -0.572299087040E+02   -0.10040E-01   -0.10452E-01  2704   0.215E+00    0.215E-01
DAV:   3    -0.572295083385E+02    0.40037E-03   -0.32845E-03  1952   0.121E+00    0.127E-01
DAV:   4    -0.572294334770E+02    0.74861E-04   -0.79446E-04  2480   0.547E-01    0.117E-01
DAV:   5    -0.572293234960E+02    0.10998E-03   -0.90951E-04  2112   0.709E-01    0.858E-02
DAV:   6    -0.572291682437E+02    0.15525E-03   -0.10504E-03  3344   0.722E-01    0.384E-02
DAV:   7    -0.572291592260E+02    0.90177E-05   -0.33884E-04  2560   0.345E-01    0.140E-02
DAV:   8    -0.572291635688E+02   -0.43427E-05   -0.79018E-05  2032   0.106E-01    0.133E-02
DAV:   9    -0.572291621992E+02    0.13696E-05   -0.14623E-05  1968   0.452E-02    0.895E-03
DAV:  10    -0.572291615733E+02    0.62586E-06   -0.15206E-05  2624   0.546E-02    0.482E-03
DAV:  11    -0.572291610698E+02    0.50353E-06   -0.27697E-06  2576   0.300E-02    0.319E-03
DAV:  12    -0.572291609400E+02    0.12982E-06   -0.54102E-07  1936   0.148E-02    0.207E-03
DAV:  13    -0.572291609940E+02   -0.54079E-07   -0.55459E-07  1568   0.103E-02
   6 F= -.57229161E+02 E0= -.57224004E+02  d E =-.589869E-02
quench:  g(F)=  0.000E+00 g(S)=  0.000E+00 dE (1.order)= 0.000E+00
 bond charge predicted
       N       E                     dE             d eps       ncg     rms          rms(c)
DAV:   1    -0.572267101201E+02    0.24508E-02   -0.42068E+00  1856   0.643E+00    0.128E-01
DAV:   2    -0.572340063932E+02   -0.72963E-02   -0.75496E-02  2720   0.168E+00    0.175E-01
DAV:   3    -0.572336915054E+02    0.31489E-03   -0.16612E-03  1888   0.803E-01    0.110E-01
DAV:   4    -0.572336204972E+02    0.71008E-04   -0.41726E-04  2464   0.382E-01    0.996E-02
DAV:   5    -0.572335320110E+02    0.88486E-04   -0.68753E-04  2176   0.631E-01    0.723E-02
DAV:   6    -0.572334086291E+02    0.12338E-03   -0.10822E-03  3392   0.697E-01    0.344E-02
DAV:   7    -0.572333934368E+02    0.15192E-04   -0.27726E-04  2912   0.357E-01    0.123E-02
DAV:   8    -0.572333987324E+02   -0.52956E-05   -0.72355E-05  2064   0.826E-02    0.126E-02
DAV:   9    -0.572333982005E+02    0.53180E-06   -0.82776E-06  1984   0.324E-02    0.104E-02
DAV:  10    -0.572333969700E+02    0.12305E-05   -0.18263E-06  2544   0.216E-02    0.677E-03
DAV:  11    -0.572333968538E+02    0.11623E-06   -0.11472E-05  2416   0.311E-02    0.594E-03
DAV:  12    -0.572333963202E+02    0.53359E-06   -0.17382E-06  1968   0.235E-02    0.350E-03
DAV:  13    -0.572333962228E+02    0.97414E-07   -0.58851E-07  1552   0.987E-03
   7 F= -.57233396E+02 E0= -.57228179E+02  d E =-.423523E-02
quench:  g(F)=  0.000E+00 g(S)=  0.000E+00 dE (1.order)= 0.000E+00
 bond charge predicted
       N       E                     dE             d eps       ncg     rms          rms(c)
DAV:   1    -0.572307655532E+02    0.26308E-02   -0.35637E+00  1856   0.596E+00    0.119E-01
DAV:   2    -0.572368781162E+02   -0.61126E-02   -0.63258E-02  2704   0.147E+00    0.149E-01
DAV:   3    -0.572366403793E+02    0.23774E-03   -0.11537E-03  1872   0.629E-01    0.101E-01
DAV:   4    -0.572365705939E+02    0.69785E-04   -0.28080E-04  2216   0.319E-01    0.899E-02
DAV:   5    -0.572364632144E+02    0.10738E-03   -0.56158E-04  3088   0.531E-01    0.540E-02
DAV:   6    -0.572364053159E+02    0.57899E-04   -0.10893E-03  3416   0.737E-01    0.372E-02
DAV:   7    -0.572363664310E+02    0.38885E-04   -0.27555E-04  2576   0.425E-01    0.924E-03
DAV:   8    -0.572363732457E+02   -0.68147E-05   -0.73320E-05  2192   0.682E-02    0.104E-02
DAV:   9    -0.572363724906E+02    0.75509E-06   -0.57053E-06  1968   0.277E-02    0.781E-03
DAV:  10    -0.572363715397E+02    0.95088E-06   -0.24243E-06  2656   0.233E-02    0.340E-03
DAV:  11    -0.572363715414E+02   -0.17099E-08   -0.30862E-06  2304   0.227E-02    0.279E-03
DAV:  12    -0.572363714570E+02    0.84419E-07   -0.56227E-07  1824   0.138E-02
   8 F= -.57236371E+02 E0= -.57231035E+02  d E =-.297523E-02
quench:  g(F)=  0.000E+00 g(S)=  0.000E+00 dE (1.order)= 0.000E+00
 bond charge predicted
       N       E                     dE             d eps       ncg     rms          rms(c)
DAV:   1    -0.572363531503E+02    0.18391E-04   -0.21296E+00  1856   0.458E+00    0.920E-02
DAV:   2    -0.572401225106E+02   -0.37694E-02   -0.39102E-02  2656   0.116E+00    0.107E-01
DAV:   3    -0.572400109745E+02    0.11154E-03   -0.66879E-04  2112   0.347E-01    0.742E-02
DAV:   4    -0.572399640601E+02    0.46914E-04   -0.12106E-04  2048   0.232E-01    0.637E-02
DAV:   5    -0.572398981014E+02    0.65959E-04   -0.23657E-04  3088   0.381E-01    0.343E-02
DAV:   6    -0.572398839394E+02    0.14162E-04   -0.41947E-04  3376   0.423E-01    0.220E-02
DAV:   7    -0.572398680503E+02    0.15889E-04   -0.11235E-04  2416   0.259E-01    0.811E-03
DAV:   8    -0.572398700489E+02   -0.19986E-05   -0.26468E-05  2016   0.374E-02    0.746E-03
DAV:   9    -0.572398694414E+02    0.60745E-06   -0.16348E-06  2136   0.195E-02    0.468E-03
DAV:  10    -0.572398691971E+02    0.24434E-06   -0.14079E-06  2456   0.219E-02    0.238E-03
DAV:  11    -0.572398691689E+02    0.28213E-07   -0.11555E-06  1888   0.177E-02    0.152E-03
DAV:  12    -0.572398691383E+02    0.30599E-07   -0.19627E-07  1088   0.581E-03
   9 F= -.57239869E+02 E0= -.57234515E+02  d E =-.349768E-02
quench:  g(F)=  0.000E+00 g(S)=  0.000E+00 dE (1.order)= 0.000E+00
 bond charge predicted
       N       E                     dE             d eps       ncg     rms          rms(c)
DAV:   1    -0.572401320788E+02   -0.26291E-03   -0.14784E-01  1856   0.121E+00    0.284E-02
DAV:   2    -0.572403863126E+02   -0.25423E-03   -0.26731E-03  2640   0.314E-01    0.253E-02
DAV:   3    -0.572403825212E+02    0.37914E-05   -0.40651E-05  2112   0.109E-01    0.199E-02
DAV:   4    -0.572403799594E+02    0.25617E-05   -0.14047E-05  2064   0.103E-01    0.155E-02
DAV:   5    -0.572403771826E+02    0.27768E-05   -0.18837E-05  3376   0.770E-02    0.631E-03
DAV:   6    -0.572403766181E+02    0.56452E-06   -0.83369E-06  2208   0.799E-02    0.370E-03
DAV:   7    -0.572403764265E+02    0.19158E-06   -0.25110E-06  2448   0.327E-02    0.225E-03
DAV:   8    -0.572403764391E+02   -0.12624E-07   -0.57895E-07  1712   0.980E-03
  10 F= -.57240376E+02 E0= -.57234989E+02  d E =-.507301E-03
quench:  g(F)=  0.000E+00 g(S)=  0.000E+00 dE (1.order)= 0.000E+00
 bond charge predicted
       N       E                     dE             d eps       ncg     rms          rms(c)
DAV:   1    -0.572409437712E+02   -0.56734E-03   -0.14002E-01  1856   0.118E+00    0.224E-02
DAV:   2    -0.572411720766E+02   -0.22831E-03   -0.23597E-03  2624   0.277E-01    0.234E-02
DAV:   3    -0.572411673701E+02    0.47065E-05   -0.32753E-05  2016   0.847E-02    0.191E-02
DAV:   4    -0.572411649161E+02    0.24540E-05   -0.12583E-05  1984   0.892E-02    0.165E-02
DAV:   5    -0.572411612775E+02    0.36386E-05   -0.31603E-05  3328   0.131E-01    0.110E-02
DAV:   6    -0.572411584408E+02    0.28367E-05   -0.27715E-05  2704   0.137E-01    0.478E-03
DAV:   7    -0.572411581200E+02    0.32084E-06   -0.64843E-06  2784   0.398E-02    0.311E-03
DAV:   8    -0.572411581959E+02   -0.75968E-07   -0.12340E-06  1968   0.827E-03    0.269E-03
DAV:   9    -0.572411581509E+02    0.45027E-07   -0.23218E-08  1008   0.261E-03
  11 F= -.57241158E+02 E0= -.57235745E+02  d E =-.781712E-03
quench:  g(F)=  0.000E+00 g(S)=  0.000E+00 dE (1.order)= 0.000E+00
 bond charge predicted
       N       E                     dE             d eps       ncg     rms          rms(c)
DAV:   1    -0.572417116155E+02   -0.55342E-03   -0.16066E-01  1856   0.126E+00    0.221E-02
DAV:   2    -0.572419718836E+02   -0.26027E-03   -0.26727E-03  2624   0.289E-01    0.244E-02
DAV:   3    -0.572419665629E+02    0.53207E-05   -0.37669E-05  2080   0.868E-02    0.203E-02
DAV:   4    -0.572419645602E+02    0.20027E-05   -0.21876E-05  1968   0.120E-01    0.183E-02
DAV:   5    -0.572419570710E+02    0.74892E-05   -0.27777E-05  3392   0.113E-01    0.100E-02
DAV:   6    -0.572419551755E+02    0.18955E-05   -0.19367E-05  3392   0.102E-01    0.555E-03
DAV:   7    -0.572419546336E+02    0.54187E-06   -0.45792E-06  2832   0.441E-02    0.326E-03
DAV:   8    -0.572419546243E+02    0.93496E-08   -0.10093E-06  1984   0.125E-02    0.201E-03
DAV:   9    -0.572419546212E+02    0.30268E-08   -0.19837E-07  1024   0.651E-03
  12 F= -.57241955E+02 E0= -.57236522E+02  d E =-.796470E-03
quench:  g(F)=  0.000E+00 g(S)=  0.000E+00 dE (1.order)= 0.000E+00
 bond charge predicted
       N       E                     dE             d eps       ncg     rms          rms(c)
DAV:   1    -0.572424917404E+02   -0.53712E-03   -0.19824E-01  1856   0.140E+00    0.246E-02
DAV:   2    -0.572428129619E+02   -0.32122E-03   -0.33078E-03  2624   0.323E-01    0.280E-02
DAV:   3    -0.572428062404E+02    0.67215E-05   -0.52233E-05  1952   0.107E-01    0.230E-02
DAV:   4    -0.572428034704E+02    0.27699E-05   -0.23428E-05  1984   0.122E-01    0.206E-02
DAV:   5    -0.572427949395E+02    0.85310E-05   -0.32627E-05  3352   0.126E-01    0.125E-02
DAV:   6    -0.572427917450E+02    0.31944E-05   -0.29733E-05  3328   0.131E-01    0.645E-03
DAV:   7    -0.572427908934E+02    0.85164E-06   -0.76322E-06  2880   0.534E-02    0.366E-03
DAV:   8    -0.572427909220E+02   -0.28660E-07   -0.15807E-06  2128   0.134E-02    0.232E-03
DAV:   9    -0.572427909101E+02    0.11929E-07   -0.21012E-07  1056   0.696E-03
  13 F= -.57242791E+02 E0= -.57237335E+02  d E =-.836289E-03
quench:  g(F)=  0.000E+00 g(S)=  0.000E+00 dE (1.order)= 0.000E+00
 bond charge predicted
       N       E                     dE             d eps       ncg     rms          rms(c)
DAV:   1    -0.572432895713E+02   -0.49865E-03   -0.23576E-01  1856   0.153E+00    0.269E-02
DAV:   2    -0.572436747104E+02   -0.38514E-03   -0.39675E-03  2624   0.355E-01    0.307E-02
DAV:   3    -0.572436666669E+02    0.80435E-05   -0.69647E-05  1952   0.127E-01    0.252E-02
DAV:   4    -0.572436636131E+02    0.30538E-05   -0.31065E-05  1968   0.140E-01    0.225E-02
DAV:   5    -0.572436531379E+02    0.10475E-04   -0.34872E-05  3384   0.127E-01    0.134E-02
DAV:   6    -0.572436496248E+02    0.35131E-05   -0.31743E-05  3360   0.133E-01    0.716E-03
DAV:   7    -0.572436485342E+02    0.10906E-05   -0.88241E-06  2888   0.613E-02    0.388E-03
DAV:   8    -0.572436485502E+02   -0.16036E-07   -0.19223E-06  2296   0.166E-02    0.236E-03
DAV:   9    -0.572436485651E+02   -0.14894E-07   -0.37698E-07  1536   0.789E-03
  14 F= -.57243649E+02 E0= -.57238167E+02  d E =-.857655E-03
quench:  g(F)=  0.000E+00 g(S)=  0.000E+00 dE (1.order)= 0.000E+00
 bond charge predicted
       N       E                     dE             d eps       ncg     rms          rms(c)
DAV:   1    -0.572441232826E+02   -0.47473E-03   -0.27154E-01  1856   0.164E+00    0.291E-02
DAV:   2    -0.572445715338E+02   -0.44825E-03   -0.46225E-03  2624   0.385E-01    0.333E-02
DAV:   3    -0.572445620918E+02    0.94421E-05   -0.88970E-05  1936   0.145E-01    0.272E-02
DAV:   4    -0.572445584925E+02    0.35993E-05   -0.36688E-05  1984   0.151E-01    0.242E-02
DAV:   5    -0.572445466589E+02    0.11834E-04   -0.37069E-05  3408   0.129E-01    0.147E-02
DAV:   6    -0.572445425535E+02    0.41054E-05   -0.36392E-05  3344   0.142E-01    0.783E-03
DAV:   7    -0.572445411421E+02    0.14115E-05   -0.10890E-05  2904   0.698E-02    0.409E-03
DAV:   8    -0.572445411877E+02   -0.45660E-07   -0.23962E-06  2304   0.188E-02    0.249E-03
DAV:   9    -0.572445412034E+02   -0.15680E-07   -0.50962E-07  1728   0.878E-03
  15 F= -.57244541E+02 E0= -.57239031E+02  d E =-.892638E-03
quench:  g(F)=  0.000E+00 g(S)=  0.000E+00 dE (1.order)= 0.000E+00
 bond charge predicted
       N       E                     dE             d eps       ncg     rms          rms(c)
DAV:   1    -0.572449225195E+02   -0.38133E-03   -0.30345E-01  1856   0.173E+00    0.309E-02
DAV:   2    -0.572454309590E+02   -0.50844E-03   -0.52516E-03  2624   0.413E-01    0.357E-02
DAV:   3    -0.572454205050E+02    0.10454E-04   -0.11812E-04  1952   0.172E-01    0.291E-02
DAV:   4    -0.572454164431E+02    0.40618E-05   -0.44397E-05  1984   0.165E-01    0.256E-02
DAV:   5    -0.572454031067E+02    0.13336E-04   -0.37550E-05  3392   0.124E-01    0.156E-02
DAV:   6    -0.572453987485E+02    0.43581E-05   -0.38276E-05  3376   0.144E-01    0.861E-03
DAV:   7    -0.572453969868E+02    0.17618E-05   -0.12254E-05  2768   0.779E-02    0.429E-03
DAV:   8    -0.572453970963E+02   -0.10955E-06   -0.28722E-06  2448   0.218E-02    0.258E-03
DAV:   9    -0.572453971427E+02   -0.46326E-07   -0.73843E-07  1856   0.959E-03
  16 F= -.57245397E+02 E0= -.57239857E+02  d E =-.855939E-03
quench:  g(F)=  0.000E+00 g(S)=  0.000E+00 dE (1.order)= 0.000E+00
 bond charge predicted
       N       E                     dE             d eps       ncg     rms          rms(c)
DAV:   1    -0.572459157893E+02   -0.51869E-03   -0.32830E-01  1856   0.179E+00    0.325E-02
DAV:   2    -0.572464718658E+02   -0.55608E-03   -0.57517E-03  2624   0.435E-01    0.372E-02
DAV:   3    -0.572464604785E+02    0.11387E-04   -0.14086E-04  1952   0.190E-01    0.302E-02
DAV:   4    -0.572464558790E+02    0.45994E-05   -0.48277E-05  2008   0.170E-01    0.261E-02
DAV:   5    -0.572464423382E+02    0.13541E-04   -0.37105E-05  3376   0.122E-01    0.162E-02
DAV:   6    -0.572464376925E+02    0.46456E-05   -0.40976E-05  3384   0.149E-01    0.885E-03
DAV:   7    -0.572464357641E+02    0.19285E-05   -0.13525E-05  2736   0.828E-02    0.424E-03
DAV:   8    -0.572464359301E+02   -0.16604E-06   -0.32259E-06  2400   0.231E-02    0.258E-03
DAV:   9    -0.572464360006E+02   -0.70526E-07   -0.88194E-07  1928   0.103E-02
  17 F= -.57246436E+02 E0= -.57240860E+02  d E =-.103886E-02
quench:  g(F)=  0.000E+00 g(S)=  0.000E+00 dE (1.order)= 0.000E+00
 bond charge predicted
       N       E                     dE             d eps       ncg     rms          rms(c)
DAV:   1    -0.572459667633E+02    0.46917E-03   -0.27576E-01  1856   0.163E+00    0.314E-02
DAV:   2    -0.572464738231E+02   -0.50706E-03   -0.52530E-03  2624   0.423E-01    0.352E-02
DAV:   3    -0.572464667449E+02    0.70782E-05   -0.16586E-04  2064   0.212E-01    0.281E-02
DAV:   4    -0.572464632072E+02    0.35377E-05   -0.61710E-05  1984   0.201E-01    0.245E-02
DAV:   5    -0.572464506353E+02    0.12572E-04   -0.37946E-05  3328   0.116E-01    0.143E-02
DAV:   6    -0.572464475404E+02    0.30949E-05   -0.28623E-05  3328   0.124E-01    0.904E-03
DAV:   7    -0.572464457716E+02    0.17689E-05   -0.10141E-05  2224   0.788E-02    0.431E-03
DAV:   8    -0.572464458283E+02   -0.56691E-07   -0.31363E-06  2568   0.248E-02    0.250E-03
DAV:   9    -0.572464458923E+02   -0.64039E-07   -0.10351E-06  1920   0.977E-03    0.214E-03
DAV:  10    -0.572464458414E+02    0.50863E-07   -0.24756E-07  1120   0.896E-03
  18 F= -.57246446E+02 E0= -.57240852E+02  d E =-.984081E-05
quench:  g(F)=  0.000E+00 g(S)=  0.000E+00 dE (1.order)= 0.000E+00
 bond charge predicted
       N       E                     dE             d eps       ncg     rms          rms(c)
DAV:   1    -0.572465612454E+02   -0.11535E-03   -0.23482E-03  1808   0.149E-01    0.393E-03
DAV:   2    -0.572465654047E+02   -0.41594E-05   -0.45225E-05  2736   0.434E-02    0.390E-03
DAV:   3    -0.572465653090E+02    0.95777E-07   -0.13832E-06  2160   0.259E-02    0.265E-03
DAV:   4    -0.572465653192E+02   -0.10205E-07   -0.34607E-07  1104   0.157E-02
  19 F= -.57246565E+02 E0= -.57240968E+02  d E =-.119478E-03
quench:  g(F)=  0.000E+00 g(S)=  0.000E+00 dE (1.order)= 0.000E+00
 bond charge predicted
       N       E                     dE             d eps       ncg     rms          rms(c)
DAV:   1    -0.572467473697E+02   -0.18206E-03   -0.43433E-03  1840   0.203E-01    0.512E-03
DAV:   2    -0.572467551725E+02   -0.78028E-05   -0.85065E-05  2640   0.679E-02    0.523E-03
DAV:   3    -0.572467552716E+02   -0.99149E-07   -0.12538E-05  2000   0.693E-02    0.507E-03
DAV:   4    -0.572467551537E+02    0.11791E-06   -0.22649E-06  1944   0.337E-02    0.313E-03
DAV:   5    -0.572467551773E+02   -0.23600E-07   -0.10053E-06  2400   0.135E-02    0.242E-03
DAV:   6    -0.572467551609E+02    0.16371E-07   -0.38927E-07  1600   0.159E-02
  20 F= -.57246755E+02 E0= -.57241153E+02  d E =-.189842E-03
quench:  g(F)=  0.000E+00 g(S)=  0.000E+00 dE (1.order)= 0.000E+00
 bond charge predicted
       N       E                     dE             d eps       ncg     rms          rms(c)
DAV:   1    -0.572469921466E+02   -0.23697E-03   -0.60220E-03  1856   0.234E-01    0.546E-03
DAV:   2    -0.572470023043E+02   -0.10158E-04   -0.10839E-04  2656   0.736E-02    0.607E-03
DAV:   3    -0.572470022017E+02    0.10261E-06   -0.56200E-06  2016   0.524E-02    0.388E-03
DAV:   4    -0.572470020443E+02    0.15738E-06   -0.13589E-06  2024   0.249E-02    0.315E-03
DAV:   5    -0.572470021409E+02   -0.96614E-07   -0.16414E-06  1600   0.310E-02    0.264E-03
DAV:   6    -0.572470019156E+02    0.22529E-06   -0.81955E-07  1400   0.221E-02    0.106E-03
DAV:   7    -0.572470019343E+02   -0.18674E-07   -0.41796E-07  1496   0.411E-03
  21 F= -.57247002E+02 E0= -.57241394E+02  d E =-.246773E-03
quench:  g(F)=  0.000E+00 g(S)=  0.000E+00 dE (1.order)= 0.000E+00
 bond charge predicted
       N       E                     dE             d eps       ncg     rms          rms(c)
DAV:   1    -0.572472611892E+02   -0.25927E-03   -0.61356E-03  1856   0.232E-01    0.424E-03
DAV:   2    -0.572472711559E+02   -0.99668E-05   -0.10350E-04  2624   0.576E-02    0.403E-03
DAV:   3    -0.572472709540E+02    0.20194E-06   -0.15899E-06  2296   0.168E-02    0.335E-03
DAV:   4    -0.572472708482E+02    0.10583E-06   -0.49636E-07  1264   0.177E-02    0.291E-03
DAV:   5    -0.572472707389E+02    0.10924E-06   -0.58520E-07  1168   0.205E-02    0.229E-03
DAV:   6    -0.572472705760E+02    0.16296E-06   -0.65856E-07  1328   0.205E-02    0.126E-03
DAV:   7    -0.572472705744E+02    0.15243E-08   -0.38426E-07  1408   0.767E-03
  22 F= -.57247271E+02 E0= -.57241658E+02  d E =-.268640E-03
quench:  g(F)=  0.000E+00 g(S)=  0.000E+00 dE (1.order)= 0.000E+00
 bond charge predicted
       N       E                     dE             d eps       ncg     rms          rms(c)
DAV:   1    -0.572475004808E+02   -0.22990E-03   -0.69969E-03  1856   0.254E-01    0.453E-03
DAV:   2    -0.572475121746E+02   -0.11694E-04   -0.12130E-04  2624   0.663E-02    0.483E-03
DAV:   3    -0.572475120725E+02    0.10218E-06   -0.41473E-06  2096   0.382E-02    0.396E-03
DAV:   4    -0.572475118960E+02    0.17642E-06   -0.11267E-06  1888   0.262E-02    0.333E-03
DAV:   5    -0.572475116300E+02    0.26600E-06   -0.52036E-07  1152   0.155E-02    0.218E-03
DAV:   6    -0.572475115555E+02    0.74564E-07   -0.12484E-06  2624   0.188E-02    0.169E-03
DAV:   7    -0.572475115229E+02    0.32571E-07   -0.10274E-07  1088   0.577E-03
  23 F= -.57247512E+02 E0= -.57241895E+02  d E =-.240948E-03
quench:  g(F)=  0.000E+00 g(S)=  0.000E+00 dE (1.order)= 0.000E+00
 bond charge predicted
       N       E                     dE             d eps       ncg     rms          rms(c)
DAV:   1    -0.572476966668E+02   -0.18511E-03   -0.77852E-03  1856   0.273E-01    0.503E-03
DAV:   2    -0.572477099091E+02   -0.13242E-04   -0.13939E-04  2624   0.673E-02    0.522E-03
DAV:   3    -0.572477096513E+02    0.25780E-06   -0.33689E-06  2136   0.287E-02    0.446E-03
DAV:   4    -0.572477094786E+02    0.17273E-06   -0.12363E-06  1920   0.277E-02    0.383E-03
DAV:   5    -0.572477091184E+02    0.36017E-06   -0.50089E-07  1168   0.171E-02    0.258E-03
DAV:   6    -0.572477089849E+02    0.13350E-06   -0.16154E-06  2688   0.211E-02    0.180E-03
DAV:   7    -0.572477089295E+02    0.55410E-07   -0.15081E-07   976   0.928E-03
  24 F= -.57247709E+02 E0= -.57242087E+02  d E =-.197407E-03
quench:  g(F)=  0.000E+00 g(S)=  0.000E+00 dE (1.order)= 0.000E+00
 bond charge predicted
       N       E                     dE             d eps       ncg     rms          rms(c)
DAV:   1    -0.572478505096E+02   -0.14152E-03   -0.85509E-03  1856   0.287E-01    0.532E-03
DAV:   2    -0.572478653064E+02   -0.14797E-04   -0.15631E-04  2624   0.725E-02    0.564E-03
DAV:   3    -0.572478650638E+02    0.24257E-06   -0.48544E-06  2040   0.380E-02    0.480E-03
DAV:   4    -0.572478648603E+02    0.20348E-06   -0.16428E-06  1952   0.320E-02    0.407E-03
DAV:   5    -0.572478644097E+02    0.45065E-06   -0.59984E-07  1368   0.158E-02    0.262E-03
DAV:   6    -0.572478642621E+02    0.14756E-06   -0.16257E-06  2464   0.212E-02    0.195E-03
DAV:   7    -0.572478642045E+02    0.57636E-07   -0.15989E-07  1072   0.990E-03
  25 F= -.57247864E+02 E0= -.57242237E+02  d E =-.155275E-03
quench:  g(F)=  0.000E+00 g(S)=  0.000E+00 dE (1.order)= 0.000E+00
 bond charge predicted
       N       E                     dE             d eps       ncg     rms          rms(c)
DAV:   1    -0.572479891131E+02   -0.12485E-03   -0.90677E-03  1856   0.298E-01    0.562E-03
DAV:   2    -0.572480044099E+02   -0.15297E-04   -0.16303E-04  2624   0.736E-02    0.591E-03
DAV:   3    -0.572480041179E+02    0.29197E-06   -0.52971E-06  1968   0.398E-02    0.510E-03
DAV:   4    -0.572480038842E+02    0.23370E-06   -0.16744E-06  1952   0.318E-02    0.424E-03
DAV:   5    -0.572480034217E+02    0.46254E-06   -0.75016E-07  1728   0.163E-02    0.277E-03
DAV:   6    -0.572480032505E+02    0.17120E-06   -0.15148E-06  2336   0.240E-02    0.202E-03
DAV:   7    -0.572480031795E+02    0.71053E-07   -0.21728E-07  1008   0.115E-02
  26 F= -.57248003E+02 E0= -.57242370E+02  d E =-.138975E-03
quench:  g(F)=  0.000E+00 g(S)=  0.000E+00 dE (1.order)= 0.000E+00
 bond charge predicted
       N       E                     dE             d eps       ncg     rms          rms(c)
DAV:   1    -0.572480757737E+02   -0.72523E-04   -0.84830E-03  1856   0.281E-01    0.558E-03
DAV:   2    -0.572480917490E+02   -0.15975E-04   -0.16982E-04  2624   0.767E-02    0.587E-03
DAV:   3    -0.572480916049E+02    0.14411E-06   -0.73685E-06  2104   0.479E-02    0.500E-03
DAV:   4    -0.572480913488E+02    0.25612E-06   -0.21823E-06  1960   0.375E-02    0.402E-03
DAV:   5    -0.572480909464E+02    0.40236E-06   -0.72934E-07  1720   0.142E-02    0.265E-03
DAV:   6    -0.572480907728E+02    0.17368E-06   -0.11997E-06  2192   0.203E-02    0.204E-03
DAV:   7    -0.572480907045E+02    0.68296E-07   -0.19234E-07  1072   0.114E-02
  27 F= -.57248091E+02 E0= -.57242452E+02  d E =-.875250E-04
quench:  g(F)=  0.000E+00 g(S)=  0.000E+00 dE (1.order)= 0.000E+00
 bond charge predicted
       N       E                     dE             d eps       ncg     rms          rms(c)
DAV:   1    -0.572481375621E+02   -0.46789E-04   -0.19313E-03  1856   0.138E-01    0.353E-03
DAV:   2    -0.572481406403E+02   -0.30782E-05   -0.34915E-05  2624   0.346E-02    0.311E-03
DAV:   3    -0.572481405212E+02    0.11904E-06   -0.66693E-07  1856   0.149E-02    0.238E-03
DAV:   4    -0.572481404813E+02    0.39963E-07   -0.17503E-07   976   0.116E-02
  28 F= -.57248140E+02 E0= -.57242499E+02  d E =-.497768E-04
quench:  g(F)=  0.000E+00 g(S)=  0.000E+00 dE (1.order)= 0.000E+00
 bond charge predicted
       N       E                     dE             d eps       ncg     rms          rms(c)
DAV:   1    -0.572481417843E+02   -0.12631E-05   -0.17886E-05  2544   0.238E-02    0.151E-03
DAV:   2    -0.572481421558E+02   -0.37152E-06   -0.44255E-06  1528   0.502E-02    0.307E-03
DAV:   3    -0.572481417175E+02    0.43830E-06   -0.20046E-06  1336   0.354E-02    0.982E-04
DAV:   4    -0.572481417301E+02   -0.12602E-07   -0.16959E-07  1120   0.284E-03
  29 F= -.57248142E+02 E0= -.57242500E+02  d E =-.124887E-05
quench:  g(F)=  0.000E+00 g(S)=  0.000E+00 dE (1.order)= 0.000E+00
 bond charge predicted
       N       E                     dE             d eps       ncg     rms          rms(c)
DAV:   1    -0.572481476337E+02   -0.59162E-05   -0.61651E-05  1856   0.237E-02    0.110E-03
DAV:   2    -0.572481477183E+02   -0.84601E-07   -0.13437E-06  2400   0.796E-03    0.121E-03
DAV:   3    -0.572481477010E+02    0.17280E-07   -0.41674E-08   960   0.433E-03
  30 F= -.57248148E+02 E0= -.57242505E+02  d E =-.597088E-05
quench:  g(F)=  0.000E+00 g(S)=  0.000E+00 dE (1.order)= 0.000E+00
 bond charge predicted
       N       E                     dE             d eps       ncg     rms          rms(c)
DAV:   1    -0.572481533857E+02   -0.56674E-05   -0.13077E-04  1864   0.350E-02    0.123E-03
DAV:   2    -0.572481535594E+02   -0.17363E-06   -0.27091E-06  2624   0.121E-02    0.140E-03
DAV:   3    -0.572481535498E+02    0.95788E-08   -0.23332E-07   968   0.918E-03
  31 F= -.57248154E+02 E0= -.57242511E+02  d E =-.584875E-05
quench:  g(F)=  0.000E+00 g(S)=  0.000E+00 dE (1.order)= 0.000E+00
 bond charge predicted
       N       E                     dE             d eps       ncg     rms          rms(c)
DAV:   1    -0.572481612325E+02   -0.76732E-05   -0.21747E-04  1864   0.455E-02    0.146E-03
DAV:   2    -0.572481615255E+02   -0.29304E-06   -0.43692E-06  2624   0.136E-02    0.171E-03
DAV:   3    -0.572481615010E+02    0.24564E-07   -0.17326E-07   976   0.780E-03
  32 F= -.57248162E+02 E0= -.57242518E+02  d E =-.795120E-05
quench:  g(F)=  0.000E+00 g(S)=  0.000E+00 dE (1.order)= 0.000E+00
 reached required accuracy - stopping structural energy minimisation
