<?xml version="1.0" encoding="ISO-8859-1"?>
<modeling>
 <generator>
  <i name="program" type="string">vasp </i>
  <i name="version" type="string">6.1.0  </i>
  <i name="subversion" type="string">28Jan20 (build May 12 2023 01:18:31) complex                          parallel </i>
  <i name="platform" type="string">LinuxIFC </i>
  <i name="date" type="string">2023 06 17 </i>
  <i name="time" type="string">17:31:32 </i>
 </generator>
 <incar>
  <i type="int" name="ISTART">     0</i>
  <i type="string" name="PREC">  Accurate</i>
  <i type="string" name="ALGO"> Normal</i>
  <i type="logical" name="ADDGRID"> T  </i>
  <i type="int" name="ISPIN">     1</i>
  <i type="int" name="NELM">   400</i>
  <i type="int" name="IBRION">     3</i>
  <i name="EDIFF">      0.00000010</i>
  <i name="EDIFFG">     -0.00200000</i>
  <i type="int" name="NSW">   500</i>
  <i type="int" name="ISIF">     2</i>
  <i type="int" name="ISYM">     2</i>
  <i name="SYMPREC">      0.00000010</i>
  <i name="ENCUT">    380.00000000</i>
  <i name="POTIM">      0.00000000</i>
  <i type="string" name="LREAL">   Auto</i>
  <i type="int" name="ISMEAR">     1</i>
  <i name="SIGMA">      0.10000000</i>
  <i type="int" name="NWRITE">     3</i>
  <i type="logical" name="LWAVE"> F  </i>
  <i type="logical" name="LCHARG"> F  </i>
  <i type="int" name="IMAGES">     5</i>
  <i type="string" name="ALGO"> Normal</i>
  <i type="int" name="NELM">   400</i>
  <i name="EDIFF">      0.00000010</i>
  <i type="int" name="ISPIN">     1</i>
  <i name="SPRING">     -5.00000000</i>
 </incar>
 <structure name="primitive_cell" >
  <crystal>
   <varray name="basis" >
    <v>       5.14773737       0.00000000       0.00000000 </v>
    <v>       0.00000000       5.14773737       0.00000000 </v>
    <v>       0.00000000       0.00000000      35.26000000 </v>
   </varray>
   <i name="volume">    934.36179200 </i>
   <varray name="rec_basis" >
    <v>       0.19426010       0.00000000       0.00000000 </v>
    <v>       0.00000000       0.19426010       0.00000000 </v>
    <v>       0.00000000       0.00000000       0.02836075 </v>
   </varray>
  </crystal>
  <varray name="positions" >
   <v>       0.25000000       0.25000000       0.99705048 </v>
   <v>       0.75000000       0.25000000       0.99705048 </v>
   <v>       0.25000000       0.75000000       0.99705048 </v>
   <v>       0.75000000       0.75000000       0.99705048 </v>
   <v>       0.00000000       0.00000000       0.04866704 </v>
   <v>       0.50000000       0.00000000       0.04866704 </v>
   <v>       0.00000000       0.50000000       0.04866704 </v>
   <v>       0.50000000       0.50000000       0.04866704 </v>
   <v>       0.25015083       0.25010763       0.09958244 </v>
   <v>       0.75015499       0.25012268       0.10003638 </v>
   <v>       0.25016262       0.75011815       0.09985483 </v>
   <v>       0.75016246       0.75012823       0.10048983 </v>
   <v>       0.99850671       0.99903185       0.15039016 </v>
   <v>       0.50202339       0.99904675       0.15039483 </v>
   <v>       0.99852416       0.50137569       0.15039186 </v>
   <v>       0.50200471       0.50136000       0.15039605 </v>
   <v>       0.25018786       0.33349622       0.20352663 </v>
  </varray>
 </structure>
 <varray name="primitive_index" >
  <v type="int" >        1 </v>
  <v type="int" >        2 </v>
  <v type="int" >        3 </v>
  <v type="int" >        4 </v>
  <v type="int" >        5 </v>
  <v type="int" >        6 </v>
  <v type="int" >        7 </v>
  <v type="int" >        8 </v>
  <v type="int" >        9 </v>
  <v type="int" >       10 </v>
  <v type="int" >       11 </v>
  <v type="int" >       12 </v>
  <v type="int" >       13 </v>
  <v type="int" >       14 </v>
  <v type="int" >       15 </v>
  <v type="int" >       16 </v>
  <v type="int" >       17 </v>
 </varray>
 <kpoints>
  <generation param="Monkhorst-Pack">
   <v type="int" name="divisions">       4        4        1 </v>
   <v name="usershift">      0.00000000       0.00000000       0.00000000 </v>
   <v name="genvec1">      0.25000000       0.00000000       0.00000000 </v>
   <v name="genvec2">      0.00000000       0.25000000       0.00000000 </v>
   <v name="genvec3">      0.00000000       0.00000000       1.00000000 </v>
   <v name="shift">      0.50000000       0.50000000       0.00000000 </v>
  </generation>
  <varray name="kpointlist" >
   <v>       0.12500000       0.12500000       0.00000000 </v>
   <v>      -0.12500000       0.12500000       0.00000000 </v>
   <v>       0.37500000       0.12500000       0.00000000 </v>
   <v>      -0.12500000       0.37500000       0.00000000 </v>
   <v>      -0.37500000       0.12500000       0.00000000 </v>
   <v>       0.12500000       0.37500000       0.00000000 </v>
   <v>       0.37500000       0.37500000       0.00000000 </v>
   <v>      -0.37500000       0.37500000       0.00000000 </v>
  </varray>
  <varray name="weights" >
   <v>       0.12500000 </v>
   <v>       0.12500000 </v>
   <v>       0.12500000 </v>
   <v>       0.12500000 </v>
   <v>       0.12500000 </v>
   <v>       0.12500000 </v>
   <v>       0.12500000 </v>
   <v>       0.12500000 </v>
  </varray>
 </kpoints>
 <parameters>
  <separator name="general" >
   <i type="string" name="SYSTEM">unknown system</i>
   <i type="logical" name="LCOMPAT"> F  </i>
  </separator>
  <separator name="electronic" >
   <i type="string" name="PREC">accura</i>
   <i name="ENMAX">    380.00000000</i>
   <i name="ENAUG">    586.98000000</i>
   <i name="EDIFF">      0.00000010</i>
   <i type="int" name="IALGO">    38</i>
   <i type="int" name="IWAVPR">    11</i>
   <i type="int" name="NBANDS">   112</i>
   <i type="int" name="NBANDSLOW">    -1</i>
   <i type="int" name="NBANDSHIGH">    -1</i>
   <i name="NELECT">    187.00000000</i>
   <i type="int" name="TURBO">     0</i>
   <i type="int" name="IRESTART">     0</i>
   <i type="int" name="NREBOOT">     0</i>
   <i type="int" name="NMIN">     0</i>
   <i name="EREF">      0.00000000</i>
   <separator name="electronic smearing" >
    <i type="int" name="ISMEAR">     1</i>
    <i name="SIGMA">      0.10000000</i>
    <i name="KSPACING">      0.50000000</i>
    <i type="logical" name="KGAMMA"> T  </i>
    <i type="logical" name="KBLOWUP"> T  </i>
   </separator>
   <separator name="electronic projectors" >
    <i type="logical" name="LREAL"> T  </i>
    <v name="ROPT">     -0.00025000     -0.00025000</v>
    <i type="int" name="LMAXPAW">  -100</i>
    <i type="int" name="LMAXMIX">     2</i>
    <i type="logical" name="NLSPLINE"> F  </i>
   </separator>
   <separator name="electronic startup" >
    <i type="int" name="ISTART">     0</i>
    <i type="int" name="ICHARG">     2</i>
    <i type="int" name="INIWAV">     1</i>
   </separator>
   <separator name="electronic spin" >
    <i type="int" name="ISPIN">     1</i>
    <i type="logical" name="LNONCOLLINEAR"> F  </i>
    <v name="MAGMOM">      1.00000000      1.00000000      1.00000000      1.00000000      1.00000000      1.00000000      1.00000000      1.00000000      1.00000000      1.00000000      1.00000000      1.00000000      1.00000000      1.00000000      1.00000000      1.00000000      1.00000000</v>
    <i name="NUPDOWN">     -1.00000000</i>
    <i type="logical" name="LSORBIT"> F  </i>
    <v name="SAXIS">      0.00000000      0.00000000      1.00000000</v>
    <i type="logical" name="LSPIRAL"> F  </i>
    <v name="QSPIRAL">      0.00000000      0.00000000      0.00000000</v>
    <i type="logical" name="LZEROZ"> F  </i>
   </separator>
   <separator name="electronic exchange-correlation" >
    <i type="logical" name="LASPH"> F  </i>
    <i type="logical" name="LMETAGGA"> F  </i>
   </separator>
   <separator name="electronic convergence" >
    <i type="int" name="NELM">   400</i>
    <i type="int" name="NELMDL">    -5</i>
    <i type="int" name="NELMIN">     2</i>
    <i name="ENINI">    380.00000000</i>
    <separator name="electronic convergence detail" >
     <i type="logical" name="LDIAG"> T  </i>
     <i type="logical" name="LSUBROT"> F  </i>
     <i name="WEIMIN">      0.00100000</i>
     <i name="EBREAK">      0.00000000</i>
     <i name="DEPER">      0.30000000</i>
     <i type="int" name="NRMM">     4</i>
     <i name="TIME">      0.40000000</i>
    </separator>
   </separator>
   <separator name="electronic mixer" >
    <i name="AMIX">      0.40000000</i>
    <i name="BMIX">      1.00000000</i>
    <i name="AMIN">      0.10000000</i>
    <i name="AMIX_MAG">      1.60000000</i>
    <i name="BMIX_MAG">      1.00000000</i>
    <separator name="electronic mixer details" >
     <i type="int" name="IMIX">     4</i>
     <i type="logical" name="MIXFIRST"> F  </i>
     <i type="int" name="MAXMIX">   -45</i>
     <i name="WC">    100.00000000</i>
     <i type="int" name="INIMIX">     1</i>
     <i type="int" name="MIXPRE">     1</i>
     <i type="int" name="MREMOVE">     5</i>
    </separator>
   </separator>
   <separator name="electronic dipolcorrection" >
    <i type="logical" name="LDIPOL"> F  </i>
    <i type="logical" name="LMONO"> F  </i>
    <i type="int" name="IDIPOL">     0</i>
    <i name="EPSILON">      1.00000000</i>
    <v name="DIPOL">   -100.00000000   -100.00000000   -100.00000000</v>
    <i name="EFIELD">      0.00000000</i>
   </separator>
  </separator>
  <separator name="grids" >
   <i type="int" name="NGX">    36</i>
   <i type="int" name="NGY">    36</i>
   <i type="int" name="NGZ">   224</i>
   <i type="int" name="NGXF">    72</i>
   <i type="int" name="NGYF">    72</i>
   <i type="int" name="NGZF">   448</i>
   <i type="logical" name="ADDGRID"> T  </i>
  </separator>
  <separator name="ionic" >
   <i type="int" name="NSW">   500</i>
   <i type="int" name="IBRION">     3</i>
   <i type="int" name="MDALGO">     0</i>
   <i type="int" name="ISIF">     2</i>
   <i name="PSTRESS">      0.00000000</i>
   <i name="EDIFFG">     -0.00200000</i>
   <i type="int" name="NFREE">     0</i>
   <i name="POTIM">      0.00000000</i>
   <i name="SMASS">     -3.00000000</i>
   <i name="SCALEE">      1.00000000</i>
  </separator>
  <separator name="ionic md" >
   <i name="TEBEG">      0.00010000</i>
   <i name="TEEND">      0.00010000</i>
   <i type="int" name="NBLOCK">     1</i>
   <i type="int" name="KBLOCK">   500</i>
   <i type="int" name="NPACO">   256</i>
   <i name="APACO">     16.00000000</i>
  </separator>
  <separator name="symmetry" >
   <i type="int" name="ISYM">     2</i>
   <i name="SYMPREC">      0.00000010</i>
  </separator>
  <separator name="dos" >
   <i type="int" name="LORBIT">     0</i>
   <v name="RWIGS">     -1.00000000     -1.00000000</v>
   <i type="int" name="NEDOS">   301</i>
   <i name="EMIN">     10.00000000</i>
   <i name="EMAX">    -10.00000000</i>
   <i name="EFERMI">      0.00000000</i>
  </separator>
  <separator name="writing" >
   <i type="int" name="NWRITE">     3</i>
   <i type="logical" name="LWAVE"> F  </i>
   <i type="logical" name="LDOWNSAMPLE"> F  </i>
   <i type="logical" name="LCHARG"> F  </i>
   <i type="logical" name="LPARD"> F  </i>
   <i type="logical" name="LVTOT"> F  </i>
   <i type="logical" name="LVHAR"> F  </i>
   <i type="logical" name="LELF"> F  </i>
   <i type="logical" name="LOPTICS"> F  </i>
   <v name="STM">      0.00000000      0.00000000      0.00000000      0.00000000      0.00000000      0.00000000      0.00000000</v>
  </separator>
  <separator name="performance" >
   <i type="int" name="NPAR">     4</i>
   <i type="int" name="NSIM">     4</i>
   <i type="int" name="NBLK">    -1</i>
   <i type="logical" name="LPLANE"> T  </i>
   <i type="logical" name="LSCALAPACK"> T  </i>
   <i type="logical" name="LSCAAWARE"> F  </i>
   <i type="logical" name="LSCALU"> F  </i>
   <i type="logical" name="LASYNC"> F  </i>
   <i type="logical" name="LORBITALREAL"> F  </i>
  </separator>
  <separator name="miscellaneous" >
   <i type="int" name="IDIOT">     3</i>
   <i type="int" name="PHON_NSTRUCT">    -1</i>
   <i type="logical" name="LMUSIC"> F  </i>
   <v name="POMASS">     63.54600000    107.86800000</v>
   <v name="DARWINR">      0.00000000      0.00000000</v>
   <v name="DARWINV">      1.00000000      1.00000000</v>
   <i type="logical" name="LCORR"> T  </i>
  </separator>
  <i type="logical" name="GGA_COMPAT"> T  </i>
  <i type="logical" name="LBERRY"> F  </i>
  <i type="int" name="ICORELEVEL">     0</i>
  <i type="logical" name="LDAU"> F  </i>
  <i type="int" name="I_CONSTRAINED_M">     0</i>
  <separator name="electronic exchange-correlation" >
   <i type="string" name="GGA">--</i>
   <i type="int" name="VOSKOWN">     0</i>
   <i type="logical" name="LHFCALC"> F  </i>
   <i type="string" name="PRECFOCK"></i>
   <i type="logical" name="LSYMGRAD"> F  </i>
   <i type="logical" name="LHFONE"> F  </i>
   <i type="logical" name="LRHFCALC"> F  </i>
   <i type="logical" name="LTHOMAS"> F  </i>
   <i type="logical" name="LMODELHF"> F  </i>
   <i type="logical" name="LFOCKACE"> F  </i>
   <i name="ENCUT4O">     -1.00000000</i>
   <i type="int" name="EXXOEP">     0</i>
   <i type="int" name="FOURORBIT">     0</i>
   <i name="AEXX">      0.00000000</i>
   <i name="HFALPHA">      0.00000000</i>
   <i name="MCALPHA">      0.00000000</i>
   <i name="ALDAX">      1.00000000</i>
   <i name="AGGAX">      1.00000000</i>
   <i name="ALDAC">      1.00000000</i>
   <i name="AGGAC">      1.00000000</i>
   <i type="int" name="NKREDX">     1</i>
   <i type="int" name="NKREDY">     1</i>
   <i type="int" name="NKREDZ">     1</i>
   <i type="logical" name="SHIFTRED"> F  </i>
   <i type="logical" name="ODDONLY"> F  </i>
   <i type="logical" name="EVENONLY"> F  </i>
   <i type="int" name="LMAXFOCK">     0</i>
   <i type="int" name="NMAXFOCKAE">     0</i>
   <i type="logical" name="LFOCKAEDFT"> F  </i>
   <i name="HFSCREEN">      0.00000000</i>
   <i name="HFSCREENC">      0.00000000</i>
   <i type="int" name="NBANDSGWLOW">     0</i>
  </separator>
  <separator name="vdW DFT" >
   <i type="logical" name="LUSE_VDW"> F  </i>
   <i name="Zab_VDW">     -0.84910000</i>
   <i name="PARAM1">      0.12340000</i>
   <i name="PARAM2">      1.00000000</i>
   <i name="PARAM3">      0.00000000</i>
  </separator>
  <separator name="model GW" >
   <i type="int" name="MODEL_GW">     0</i>
   <i name="MODEL_EPS0">     32.97747501</i>
   <i name="MODEL_ALPHA">      1.00000000</i>
  </separator>
  <separator name="linear response parameters" >
   <i type="logical" name="LEPSILON"> F  </i>
   <i type="logical" name="LRPA"> F  </i>
   <i type="logical" name="LNABLA"> F  </i>
   <i type="logical" name="LVEL"> F  </i>
   <i type="int" name="KINTER">     0</i>
   <i name="CSHIFT">      0.10000000</i>
   <i name="OMEGAMAX">     -1.00000000</i>
   <i name="DEG_THRESHOLD">      0.00200000</i>
   <i name="RTIME">     -0.10000000</i>
   <i name="WPLASMAI">      0.00000000</i>
   <v name="DFIELD">      0.00000000      0.00000000      0.00000000</v>
   <v name="WPLASMA">      0.00000000      0.00000000      0.00000000      0.00000000      0.00000000      0.00000000      0.00000000      0.00000000      0.00000000</v>
  </separator>
  <separator name="orbital magnetization" >
   <i type="logical" name="NUCIND"> F  </i>
   <v name="MAGPOS">      0.00000000      0.00000000      0.00000000</v>
   <i type="logical" name="LNICSALL"> T  </i>
   <i type="logical" name="ORBITALMAG"> F  </i>
   <i type="logical" name="LMAGBLOCH"> F  </i>
   <i type="logical" name="LCHIMAG"> F  </i>
   <i type="logical" name="LGAUGE"> T  </i>
   <i type="int" name="MAGATOM">     0</i>
   <v name="MAGDIPOL">      0.00000000      0.00000000      0.00000000</v>
   <v name="AVECCONST">      0.00000000      0.00000000      0.00000000</v>
  </separator>
  <separator name="response functions" >
   <i type="logical" name="LFINITE_TEMPERATURE"> F  </i>
   <i type="logical" name="LADDER"> F  </i>
   <i type="logical" name="LRPAFORCE"> F  </i>
   <i type="logical" name="LFXC"> F  </i>
   <i type="logical" name="LHARTREE"> T  </i>
   <i type="int" name="IBSE">     0</i>
   <v type="int" name="KPOINT">    -1     0     0     0</v>
   <i type="logical" name="LTCTC"> F  </i>
   <i type="logical" name="LTCTE"> F  </i>
   <i type="logical" name="LTETE"> F  </i>
   <i type="logical" name="LTRIPLET"> F  </i>
   <i type="logical" name="LFXCEPS"> F  </i>
   <i type="logical" name="LFXHEG"> F  </i>
   <i type="int" name="NATURALO">     2</i>
   <i type="logical" name="LHOLEGF"> F  </i>
   <i type="logical" name="L2ORDER"> F  </i>
   <i type="logical" name="LDMP1"> F  </i>
   <i type="logical" name="LMP2LT"> F  </i>
   <i type="logical" name="LSMP2LT"> F  </i>
   <i type="logical" name="LGWLF"> F  </i>
   <i name="ENCUTGW">     -2.00000000</i>
   <i name="ENCUTGWSOFT">     -2.00000000</i>
   <i name="ENCUTLF">     -1.00000000</i>
   <i type="logical" name="LESF_SPLINES"> F  </i>
   <i type="int" name="LMAXMP2">    -1</i>
   <i name="SCISSOR">      0.00000000</i>
   <i type="int" name="NOMEGA">     0</i>
   <i type="int" name="NOMEGAR">     0</i>
   <i type="int" name="NBANDSGW">    -1</i>
   <i type="int" name="NBANDSO">    -1</i>
   <i type="int" name="NBANDSV">    -1</i>
   <i type="int" name="NELM">   400</i>
   <i type="int" name="NELMHF">     1</i>
   <i type="int" name="DIM">     3</i>
   <i type="int" name="IESPILON">     4</i>
   <i type="int" name="ANTIRES">     0</i>
   <i name="OMEGAMAX">    -30.00000000</i>
   <i name="OMEGAMIN">    -30.00000000</i>
   <i name="OMEGATL">   -200.00000000</i>
   <i type="int" name="OMEGAGRID">     0</i>
   <i name="CSHIFT">     -0.10000000</i>
   <i type="logical" name="LSELFENERGY"> F  </i>
   <i type="logical" name="LSPECTRAL"> F  </i>
   <i type="logical" name="LSPECTRALGW"> F  </i>
   <i type="logical" name="LSINGLES"> F  </i>
   <i type="logical" name="LFERMIGW"> F  </i>
   <i type="logical" name="ODDONLYGW"> F  </i>
   <i type="logical" name="EVENONLYGW"> F  </i>
   <i type="int" name="NKREDLFX">     1</i>
   <i type="int" name="NKREDLFY">     1</i>
   <i type="int" name="NKREDLFZ">     1</i>
   <i type="int" name="MAXMEM">  2800</i>
   <i type="int" name="TELESCOPE">     0</i>
   <i type="int" name="NTAUPAR">    -1</i>
   <i type="int" name="NOMEGAPAR">    -1</i>
   <i name="LAMBDA">      1.00000000</i>
  </separator>
  <separator name="External order field" >
   <i name="OFIELD_KAPPA">      0.00000000</i>
   <v name="OFIELD_K">      0.00000000      0.00000000      0.00000000</v>
   <i name="OFIELD_Q6_NEAR">      0.00000000</i>
   <i name="OFIELD_Q6_FAR">      0.00000000</i>
   <i name="OFIELD_A">      0.00000000</i>
  </separator>
 </parameters>
 <atominfo>
  <atoms>      17 </atoms>
  <types>       2 </types>
  <array name="atoms" >
   <dimension dim="1">ion</dimension>
   <field type="string">element</field>
   <field type="int">atomtype</field>
   <set>
    <rc><c>Cu</c><c>   1</c></rc>
    <rc><c>Cu</c><c>   1</c></rc>
    <rc><c>Cu</c><c>   1</c></rc>
    <rc><c>Cu</c><c>   1</c></rc>
    <rc><c>Cu</c><c>   1</c></rc>
    <rc><c>Cu</c><c>   1</c></rc>
    <rc><c>Cu</c><c>   1</c></rc>
    <rc><c>Cu</c><c>   1</c></rc>
    <rc><c>Cu</c><c>   1</c></rc>
    <rc><c>Cu</c><c>   1</c></rc>
    <rc><c>Cu</c><c>   1</c></rc>
    <rc><c>Cu</c><c>   1</c></rc>
    <rc><c>Cu</c><c>   1</c></rc>
    <rc><c>Cu</c><c>   1</c></rc>
    <rc><c>Cu</c><c>   1</c></rc>
    <rc><c>Cu</c><c>   1</c></rc>
    <rc><c>Ag</c><c>   2</c></rc>
   </set>
  </array>
  <array name="atomtypes" >
   <dimension dim="1">type</dimension>
   <field type="int">atomspertype</field>
   <field type="string">element</field>
   <field>mass</field>
   <field>valence</field>
   <field type="string">pseudopotential</field>
   <set>
    <rc><c>  16</c><c>Cu</c><c>     63.54600000</c><c>     11.00000000</c><c>  PAW_PBE Cu 22Jun2005                  </c></rc>
    <rc><c>   1</c><c>Ag</c><c>    107.86800000</c><c>     11.00000000</c><c>  PAW_PBE Ag 02Apr2005                  </c></rc>
   </set>
  </array>
 </atominfo>
 <structure name="initialpos" >
  <crystal>
   <varray name="basis" >
    <v>       5.14773737       0.00000000       0.00000000 </v>
    <v>       0.00000000       5.14773737       0.00000000 </v>
    <v>       0.00000000       0.00000000      35.26000000 </v>
   </varray>
   <i name="volume">    934.36179200 </i>
   <varray name="rec_basis" >
    <v>       0.19426010       0.00000000       0.00000000 </v>
    <v>       0.00000000       0.19426010       0.00000000 </v>
    <v>       0.00000000       0.00000000       0.02836075 </v>
   </varray>
  </crystal>
  <varray name="positions" >
   <v>       0.25000000       0.25000000       0.99705048 </v>
   <v>       0.75000000       0.25000000       0.99705048 </v>
   <v>       0.25000000       0.75000000       0.99705048 </v>
   <v>       0.75000000       0.75000000       0.99705048 </v>
   <v>       0.00000000       0.00000000       0.04866704 </v>
   <v>       0.50000000       0.00000000       0.04866704 </v>
   <v>       0.00000000       0.50000000       0.04866704 </v>
   <v>       0.50000000       0.50000000       0.04866704 </v>
   <v>       0.25022284       0.25000684       0.09984821 </v>
   <v>       0.75019043       0.25000862       0.10048578 </v>
   <v>       0.25020829       0.75000622       0.09957802 </v>
   <v>       0.75017770       0.75000658       0.10002967 </v>
   <v>       0.99856375       0.00118949       0.15037767 </v>
   <v>       0.50207695       0.00118078       0.15039425 </v>
   <v>       0.99856785       0.49883845       0.15037941 </v>
   <v>       0.50207152       0.49884798       0.15039588 </v>
   <v>       0.25014678       0.66668859       0.20352376 </v>
  </varray>
  <varray name="selective"  type="logical" >
   <v type="logical" >  F  F  F </v>
   <v type="logical" >  F  F  F </v>
   <v type="logical" >  F  F  F </v>
   <v type="logical" >  F  F  F </v>
   <v type="logical" >  F  F  F </v>
   <v type="logical" >  F  F  F </v>
   <v type="logical" >  F  F  F </v>
   <v type="logical" >  F  F  F </v>
   <v type="logical" >  T  T  T </v>
   <v type="logical" >  T  T  T </v>
   <v type="logical" >  T  T  T </v>
   <v type="logical" >  T  T  T </v>
   <v type="logical" >  T  T  T </v>
   <v type="logical" >  T  T  T </v>
   <v type="logical" >  T  T  T </v>
   <v type="logical" >  T  T  T </v>
   <v type="logical" >  T  T  T </v>
  </varray>
  <nose>
   <v>      -3.00000000       0.00000000       0.00010000       0.00010000 </v>
  </nose>
 </structure>
 <calculation>
  <scstep>
   <time name="dav">   16.27   16.73</time>
   <time name="total">   17.24   17.86</time>
   <energy>
    <i name="alphaZ">    228.37091057 </i>
    <i name="ewald"> 196181.26880480 </i>
    <i name="hartreedc">-218091.64250620 </i>
    <i name="XCdc">    716.72943378 </i>
    <i name="pawpsdc">  20654.76870738 </i>
    <i name="pawaedc"> -22302.12474825 </i>
    <i name="eentropy">     -0.00264634 </i>
    <i name="bandstr">    829.10197794 </i>
    <i name="atom">  23292.47908388 </i>
    <i name="e_fr_energy">   1508.94901755 </i>
    <i name="e_wo_entrp">   1508.95166389 </i>
    <i name="e_0_energy">   1508.94989966 </i>
   </energy>
  </scstep>
  <scstep>
   <time name="dav">   16.15   16.15</time>
   <time name="total">   16.15   16.15</time>
   <energy>
    <i name="e_fr_energy">     76.44000952 </i>
    <i name="e_wo_entrp">     76.44123413 </i>
    <i name="e_0_energy">     76.44041772 </i>
   </energy>
  </scstep>
  <scstep>
   <time name="dav">   17.54   17.54</time>
   <time name="total">   17.54   17.54</time>
   <energy>
    <i name="e_fr_energy">    -60.09926079 </i>
    <i name="e_wo_entrp">    -60.09784987 </i>
    <i name="e_0_energy">    -60.09879048 </i>
   </energy>
  </scstep>
  <scstep>
   <time name="dav">   19.54   19.54</time>
   <time name="total">   19.54   19.54</time>
   <energy>
    <i name="e_fr_energy">    -68.97126969 </i>
    <i name="e_wo_entrp">    -68.96768240 </i>
    <i name="e_0_energy">    -68.97007393 </i>
   </energy>
  </scstep>
  <scstep>
   <time name="dav">   18.74   18.74</time>
   <time name="total">   20.34   20.35</time>
   <energy>
    <i name="e_fr_energy">    -69.18161938 </i>
    <i name="e_wo_entrp">    -69.17813520 </i>
    <i name="e_0_energy">    -69.18045798 </i>
   </energy>
  </scstep>
  <scstep>
   <time name="dav">   17.46   17.46</time>
   <time name="total">   19.79   19.80</time>
   <energy>
    <i name="e_fr_energy">    -62.50784459 </i>
    <i name="e_wo_entrp">    -62.49701040 </i>
    <i name="e_0_energy">    -62.50423319 </i>
   </energy>
  </scstep>
  <scstep>
   <time name="dav">   18.66   18.66</time>
   <time name="total">   20.99   21.00</time>
   <energy>
    <i name="e_fr_energy">    -56.47243692 </i>
    <i name="e_wo_entrp">    -56.46225545 </i>
    <i name="e_0_energy">    -56.46904310 </i>
   </energy>
  </scstep>
  <scstep>
   <time name="dav">   19.33   19.33</time>
   <time name="total">   21.63   21.64</time>
   <energy>
    <i name="e_fr_energy">    -56.63742727 </i>
    <i name="e_wo_entrp">    -56.62619122 </i>
    <i name="e_0_energy">    -56.63368192 </i>
   </energy>
  </scstep>
  <scstep>
   <time name="dav">   19.20   19.20</time>
   <time name="total">   21.54   21.55</time>
   <energy>
    <i name="e_fr_energy">    -56.68408915 </i>
    <i name="e_wo_entrp">    -56.66990315 </i>
    <i name="e_0_energy">    -56.67936048 </i>
   </energy>
  </scstep>
  <scstep>
   <time name="dav">   18.15   18.15</time>
   <time name="total">   20.47   20.48</time>
   <energy>
    <i name="e_fr_energy">    -56.64097840 </i>
    <i name="e_wo_entrp">    -56.62836059 </i>
    <i name="e_0_energy">    -56.63677246 </i>
   </energy>
  </scstep>
  <scstep>
   <time name="dav">   21.94   21.94</time>
   <time name="total">   24.25   24.27</time>
   <energy>
    <i name="e_fr_energy">    -56.57101987 </i>
    <i name="e_wo_entrp">    -56.55625925 </i>
    <i name="e_0_energy">    -56.56609967 </i>
   </energy>
  </scstep>
  <scstep>
   <time name="dav">   21.18   21.18</time>
   <time name="total">   23.49   23.50</time>
   <energy>
    <i name="e_fr_energy">    -56.56436221 </i>
    <i name="e_wo_entrp">    -56.55009637 </i>
    <i name="e_0_energy">    -56.55960693 </i>
   </energy>
  </scstep>
  <scstep>
   <time name="dav">   17.67   17.67</time>
   <time name="total">   19.98   19.99</time>
   <energy>
    <i name="e_fr_energy">    -56.56801734 </i>
    <i name="e_wo_entrp">    -56.55323906 </i>
    <i name="e_0_energy">    -56.56309124 </i>
   </energy>
  </scstep>
  <scstep>
   <time name="dav">   18.33   18.33</time>
   <time name="total">   20.63   20.64</time>
   <energy>
    <i name="e_fr_energy">    -56.56781151 </i>
    <i name="e_wo_entrp">    -56.55296178 </i>
    <i name="e_0_energy">    -56.56286160 </i>
   </energy>
  </scstep>
  <scstep>
   <time name="dav">   17.70   17.70</time>
   <time name="total">   20.01   20.02</time>
   <energy>
    <i name="e_fr_energy">    -56.56698060 </i>
    <i name="e_wo_entrp">    -56.55231826 </i>
    <i name="e_0_energy">    -56.56209315 </i>
   </energy>
  </scstep>
  <scstep>
   <time name="dav">   19.44   19.44</time>
   <time name="total">   21.75   21.76</time>
   <energy>
    <i name="e_fr_energy">    -56.56712917 </i>
    <i name="e_wo_entrp">    -56.55248236 </i>
    <i name="e_0_energy">    -56.56224690 </i>
   </energy>
  </scstep>
  <scstep>
   <time name="dav">   18.42   18.42</time>
   <time name="total">   20.72   20.73</time>
   <energy>
    <i name="e_fr_energy">    -56.56705841 </i>
    <i name="e_wo_entrp">    -56.55232748 </i>
    <i name="e_0_energy">    -56.56214810 </i>
   </energy>
  </scstep>
  <scstep>
   <time name="dav">   18.40   18.40</time>
   <time name="total">   20.70   20.71</time>
   <energy>
    <i name="e_fr_energy">    -56.56728500 </i>
    <i name="e_wo_entrp">    -56.55252528 </i>
    <i name="e_0_energy">    -56.56236509 </i>
   </energy>
  </scstep>
  <scstep>
   <time name="dav">   16.89   16.89</time>
   <time name="total">   19.18   19.20</time>
   <energy>
    <i name="e_fr_energy">    -56.56736941 </i>
    <i name="e_wo_entrp">    -56.55264027 </i>
    <i name="e_0_energy">    -56.56245970 </i>
   </energy>
  </scstep>
  <scstep>
   <time name="dav">   18.29   18.29</time>
   <time name="total">   20.60   20.61</time>
   <energy>
    <i name="e_fr_energy">    -56.56758013 </i>
    <i name="e_wo_entrp">    -56.55282081 </i>
    <i name="e_0_energy">    -56.56266036 </i>
   </energy>
  </scstep>
  <scstep>
   <time name="dav">   18.03   18.03</time>
   <time name="total">   20.34   20.35</time>
   <energy>
    <i name="e_fr_energy">    -56.56768890 </i>
    <i name="e_wo_entrp">    -56.55293407 </i>
    <i name="e_0_energy">    -56.56277062 </i>
   </energy>
  </scstep>
  <scstep>
   <time name="dav">   18.34   18.34</time>
   <time name="total">   20.65   20.67</time>
   <energy>
    <i name="e_fr_energy">    -56.56788559 </i>
    <i name="e_wo_entrp">    -56.55314829 </i>
    <i name="e_0_energy">    -56.56297315 </i>
   </energy>
  </scstep>
  <scstep>
   <time name="dav">   19.37   19.37</time>
   <time name="total">   21.67   21.68</time>
   <energy>
    <i name="e_fr_energy">    -56.56804025 </i>
    <i name="e_wo_entrp">    -56.55329604 </i>
    <i name="e_0_energy">    -56.56312551 </i>
   </energy>
  </scstep>
  <scstep>
   <time name="dav">   19.11   19.11</time>
   <time name="total">   21.43   21.44</time>
   <energy>
    <i name="e_fr_energy">    -56.56807682 </i>
    <i name="e_wo_entrp">    -56.55333111 </i>
    <i name="e_0_energy">    -56.56316158 </i>
   </energy>
  </scstep>
  <scstep>
   <time name="dav">   18.77   18.77</time>
   <time name="total">   21.08   21.09</time>
   <energy>
    <i name="e_fr_energy">    -56.56813690 </i>
    <i name="e_wo_entrp">    -56.55339413 </i>
    <i name="e_0_energy">    -56.56322264 </i>
   </energy>
  </scstep>
  <scstep>
   <time name="dav">   17.81   17.81</time>
   <time name="total">   20.15   20.16</time>
   <energy>
    <i name="e_fr_energy">    -56.56816852 </i>
    <i name="e_wo_entrp">    -56.55342670 </i>
    <i name="e_0_energy">    -56.56325458 </i>
   </energy>
  </scstep>
  <scstep>
   <time name="dav">   12.59   12.59</time>
   <time name="total">   14.96   14.97</time>
   <energy>
    <i name="e_fr_energy">    -56.56817664 </i>
    <i name="e_wo_entrp">    -56.55343442 </i>
    <i name="e_0_energy">    -56.56326257 </i>
   </energy>
  </scstep>
  <scstep>
   <time name="dav">   13.56   13.56</time>
   <time name="total">   15.90   15.91</time>
   <energy>
    <i name="e_fr_energy">    -56.56818926 </i>
    <i name="e_wo_entrp">    -56.55344548 </i>
    <i name="e_0_energy">    -56.56327467 </i>
   </energy>
  </scstep>
  <scstep>
   <time name="dav">   12.01   12.01</time>
   <time name="total">   14.34   14.35</time>
   <energy>
    <i name="e_fr_energy">    -56.56819551 </i>
    <i name="e_wo_entrp">    -56.55345132 </i>
    <i name="e_0_energy">    -56.56328078 </i>
   </energy>
  </scstep>
  <scstep>
   <time name="dav">   12.31   12.31</time>
   <time name="total">   14.67   14.68</time>
   <energy>
    <i name="e_fr_energy">    -56.56819684 </i>
    <i name="e_wo_entrp">    -56.55345298 </i>
    <i name="e_0_energy">    -56.56328222 </i>
   </energy>
  </scstep>
  <scstep>
   <time name="dav">   11.58   11.58</time>
   <time name="total">   13.92   13.93</time>
   <energy>
    <i name="e_fr_energy">    -56.56819852 </i>
    <i name="e_wo_entrp">    -56.55345556 </i>
    <i name="e_0_energy">    -56.56328420 </i>
   </energy>
  </scstep>
  <scstep>
   <time name="dav">   12.11   12.11</time>
   <time name="total">   14.43   14.44</time>
   <energy>
    <i name="e_fr_energy">    -56.56819892 </i>
    <i name="e_wo_entrp">    -56.55345582 </i>
    <i name="e_0_energy">    -56.56328455 </i>
   </energy>
  </scstep>
  <scstep>
   <time name="dav">   11.67   11.67</time>
   <time name="total">   13.98   13.99</time>
   <energy>
    <i name="e_fr_energy">    -56.56819905 </i>
    <i name="e_wo_entrp">    -56.55345584 </i>
    <i name="e_0_energy">    -56.56328465 </i>
   </energy>
  </scstep>
  <scstep>
   <time name="dav">   11.69   11.69</time>
   <time name="total">   12.43   12.44</time>
   <energy>
    <i name="alphaZ">    228.37091057 </i>
    <i name="ewald"> 196181.26880480 </i>
    <i name="hartreedc">-217966.35115367 </i>
    <i name="XCdc">    700.72104869 </i>
    <i   <time name="dav">   11.05   11.05</time>
   <time name="total">   11.79   11.80</time>
   <energy>
    <i name="alphaZ">    228.37091057 </i>
    <i name="ewald"> 196161.15079914 </i>
    <i name="hartreedc">-217946.26942691 </i>
    <i name="XCdc">    700.56974384 </i>
    <i name="pawpsdc">  21869.48737746 </i>
    <i name="pawaedc"> -23546.14069237 </i>
    <i name="eent  <structure>
   <crystal>
    <varray name="basis" >
     <v>       5.14773737       0.00000000       0.00000000 </v>
     <v>       0.00000000       5.14773737       0.00000000 </v>
     <v>       0.00000000       0.00000000      35.26000000 </v>
    </varray>
    <i name="volu  <structure>
   <crystal>
    <varray name="basis" >
     <v>       5.14773737       0.00000000       0.00000000 </v>
     <v>       0.00000000       5.14773737       0.00000000 </v>
     <v>       0.00000000       0.00000000      35.26000000 </v>
    </varray>
    <i name="volume">    934.36179200 </i>
    <varray name="rec_basis" >
     <v>       0.19426010       0.00000000       0.00000000 </v>
     <v>       0.00000000       0.19426010       0.00000000 </v>
     <v>       0.00000000       0.00000000       0.02836075 </v>
    </varray>
   </crystal>
   <varray name="positions" >
    <v>       0.25000000       0.25000000       0.99705048 </v>
    <v>       0.75000000       0.25000000       0.99705048 </v>
    <v>       0.25000000       0.75000000       0.99705048 </v>
    <v>       0.75000000       0.75000000       0.99705048 </v>
    <v>       0.00000000       0.00000000       0.04866704 </v>
    <v>       0.50000000       0.00000000       0.04866704 </v>
    <v>       0.00000000       0.50000000       0.04866704 </v>
    <v>       0.50000000       0.50000000       0.04866704 </v>
    <v>       0.25020484       0.25003204       0.09978177 </v>
    <v>       0.75018157       0.25003714       0.10037343 </v>
    <v>       0.25019687       0.75003420       0.09964722 </v>
    <v>       0.75017389       0.75003699       0.10014471 </v>
    <v>       0.99854949       0.00065008       0.15038079 </v>
    <v>       0.50206356       0.00064727       0.15039439 </v>
    <v>       0.99855692       0.49947276       0.15038253 </v>
    <v>       0.50205482       0.49947598       0.15039592 </v>
    <v>       0.25015705       0.58339050       0.20352448 </v>
   </varray>
  </structure>
  <varray name="forces" >
   <v>       0.00002217      -0.01562136       0.25065268 </v>
   <v>       0.00002503      -0.02136868       0.29903525 </v>
   <v>       0.00003368       0.01650782       0.24725412 </v>
   <v>       0.00002243       0.02029227       0.27091478 </v>
   <v>      -0.08996514       0.01539462      -0.29085981 </v>
   <v>       0.09338619       0.01536872      -0.29124510 </v>
   <v>       0.00214513      -0.01450854      -0.24775130 </v>
   <v>       0.00118759      -0.01447898      -0.24824539 </v>
   <v>      -0.00076517      -0.07089991       0.01408124 </v>
   <v>      -0.00041917       0.02924674       0.01189825 </v>
   <v>      -0.00071385       0.07014349      -0.01398401 </v>
   <v>      -0.00045458      -0.02565040      -0.02825547 </v>
   <v>       0.19498865      -0.10309736       0.14923925 </v>
   <v>      -0.19713774      -0.10297463       0.14767862 </v>
   <v>      -0.96514676      -0.31804877      -1.24002545 </v>
   <v>       0.96130238      -0.31718505      -1.23703000 </v>
   <v>       0.0014891  <energy>
   <i name="e_fr_energy">    -56.56819914 </i>
   <i name="e_wo_entrp">    -56.55345578 </i>
   <i name="e_0_energy">    -56.56328469 </i>
  </energy>
  <time name="totalsc">  679.94  681.13</time>
 </calculation>
422       2.66847925       2.48694229 </v>
  </varray>
  <energy>
   <i name="e_fr_energy">    -56.77073240 </i>
   <i name="e_wo_entrp">    -56.75541377 </i>
   <i name="e_0_energy">    -56.76562619 </i>
  </energy>
  <time name="totalsc">  679.79  681.11</time>
 </calculation>
 <calculation>
  <scstep>
   <time name="dav">   15.95     <time name=   <time name="total">   18.31   <time name="total">   18.47   18.49</time>
   <en   <time name="total">   18.67   18.69</time>
   <energy>
    <i name="alphaZ">    228.37091057 </i>
    <i name="ewald"> 196134.00463304 </i>
    <i name="hartreedc">-217919.73451331 </i>
    <i name="XCdc">    700.64829797 </i>
    <i name="pawpsdc">  21910.99368867 </i>
    <i name="pawaedc"> -23588.41801375 </i>
    <i name="eentropy">     -0.01402151 </i>
    <i name="bandstr">   -815.02250386 </i>
    <i name="atom">  23292.47908388 </i>
    <i name="e_fr_energy">    -56.69243830 </i>
    <i name="e_wo_entrp">    -56.67841679 </i>
    <time name="dav">   21.54     <time name=   <time name="total">   23.84   <time name="total">   2   <time name="total">   2   <time name="total">   23.94   23.96</time>
   <energy>
    <i name="e_fr_energy">    -56.71820589 </i>
    <i name="e_wo_entrp">    -56.70427924 </i>
    <time name="dav">   17.33     <time name=   <time name="total">   19.67   19.68</time>
   <energy   <time name="total">   1   <time name="total">   20.22   20.23</time>
   <energy>
    <i name="e_fr_energy">    -56.71744216 </i>
    <i name="e_wo_entrp">    -56.70355268 </i>
    <time name="dav">   17.24   17.24</time>
   <time name="total">   19.51   19.52</time>
   <energy   <time name="total">   1   <time name="total">   19.97   19.98</time>
   <energy>
    <i name="e_fr_energy">    -56.71787592 </i>
    <i name="e_wo_entrp">    -56.70383190 </i>
    <time name="dav">   19.05   19.05</time>
   <time name="total">   21.27   21.28</time>
   <energy>
    <i name="e_fr_energy   <time name="total">   20.14   20.15</time>
   <energy>
    <i name="e_fr_energy">    -56.71798274 </i>
    <i name="e_wo_entrp">    -56.70438663 </i>
    <time name="dav">   21.11   21.11</time>
   <time name="total">   23.34   23.35</time>
   <energy>
    <i name="e_fr_energy">    -57.16865867 </i>
    <i name="e_wo_entrp">    -57.15271297 </i>
    <i name="e_0_energy">    -57.16334343 </i>
   </energy>
  </scstep>
  <scstep>
   <time name="dav">   23.98   23.98</time>
   <time name="total">   26.31   <time name="t   <energy>
    <i name="e_fr_   <energy>
    <i name="e_fr_energy">    -57.16866804 </i>
    <i name="e_wo_entrp">    -57.15271032 </i>
    <i name="e_0_energy">    -57.16334880 </i>
   </e   <time name="dav">   16.99     <time name="dav">   17.15   17.15</time>
   <time name="total">   19.52   29.02</time>
   <energy>
    <i name="e_fr_energy">    -57.16866851 </i>
    <i name="e_wo_entrp">    -57.15271158 </i>
    <i name="e_0_energy">    -57.16334953 </i>
   </e   <time name="dav">   17.17     <time name="dav">   17.38   17.38</time>
   <time name="total">   19.70   19.71</time>
   <energy>
    <i name="e_fr_energy">    -57.16866816 </i>
    <i name="e_wo_entrp">    -57.15270901 </i>
    <i name="e_0_energy">    -57.16334844 </i>
   </e   <time name="dav">   21.43     <time name="dav">   21.38   21.38</time>
   <time name="total">   23.72   23.73</time>
   <energy>
    <i name="e_fr_energy">    -57.16866809 </i>
    <i name="e_wo_entrp">    -57.15270582 </i>
    <i name="e_0_energy">    -57.16334733 </i>
   </e   <time name="dav">   13.06     <time name="dav">   13.07   13.07</time>
   <time   <time name="dav">   21.96   21.96</time>
   <time name="total">   24.24   24.25</time>
   <energy>
    <i name="e_fr_energy">    -56.71729043 </i>
    <i name="e_wo_entrp">    -56.70341341 </i>
    <i name="e_0   <time name="dav">   16.39   16.39</tim   <time name="dav">   16.   <time name="dav">   16.67   16.67</time>
   <time name="total">   18.89   18.91</time>
   <energy>
    <i name="e_fr_energy">    -56.71729086 </i>
    <i name="e_wo_entrp">    -56.70341246 </i>
    <i name="e_0   <time name="dav">   10.82   10.82</tim   <time name="dav">    8.   <time name="dav">   11.76   11.76</time>
   <time name="total">   13.51   13.52</time>
   <energy>
    <i name="e_fr_energy">    -56.71729112 </i>
    <i name="e_wo_entrp">    -56.70341264 </i>
    <i name="e_0_energy">    -56.71266496 </i>
   </energ   <time name="dav">    8.   <time name="dav">    8.84    8.84</time>
   <time name="total">   10.48   10.49</time>
   <energy>
    <i name="e_fr_energy">    -56.71729159 </i>
    <i name="e_wo_entrp">    -56.70341441 </i>
    <i name="e_0_energy">    -56.71266586 </i>
   </energy>
  </scstep>
  <scstep>
   <time name="dav">    8.52    8.52</time>
   <time name="total">   10.17   10.18</time>
   <energy>
    <i name="e_fr_energy">    -56.71729209 </i>
    <i name="e_wo_entrp">    -56.70341529 </i>
    <i name="e_0_energy">    -56.71266649 </i>
   </energy>
  </scstep>
  <scstep>
   <time name="dav">    8.60    8.61</time>
   <time name="total">   10.30   10.32</time>
   <energy>
    <i name="e_fr_energy">    -56.71729238 </i>
    <i name="e_wo_entrp">    -56.70341553 </i>
    <i name="e_0_energy">    -56.71266676 </i>
   </energy>
  </scstep>
  <scstep>
   <time name="dav">    8.40    8.40</time>
   <time name="total">   10.09   10.10</time>
   <energy>
    <i name="e_fr_energy">    -56.71729295 </i>
    <i name="e_wo_entrp">    -56.70341577 </i>
    <i name="e_0_energy">    -56.71266723 </i>
   </energy>
  </scstep>
  <scstep>
   <time name="dav">    8.44    8.44</time>
   <time name="total">   10.12   10.13</time>
   <energy>
    <i name="e_fr_energy">    -56.71729365 </i>
    <i name="e_wo_entrp">    -56.70341681 </i>
    <i name="e_0_energy">    -56.71266804 </i>
   </energy>
  </scstep>
  <scstep>
   <time name="dav">    8.55    8.55</time>
   <time name="total">   10.17   10.18</time>
   <energy>
    <i name="e_fr_energy">    -56.71729407 </i>
    <i name="e_wo_entrp">    -56.70341703 </i>
    <i name="e_0_energy">    -56.71266839 </i>
   </energy>
  </scstep>
  <scstep>
   <time name="dav">    8.35    8.35</time>
   <time name="total">    8.90    8.91</time>
   <energy>
    <i name="alphaZ">    228.37091057 </i>
    <i name="ewald"> 196134.00463304 </i>
    <i name="hartreedc">-217920.65358534 </i>
    <i name="XCdc">    700.65689791 </i>
    <i name="pawpsdc">  21896.57536443 </i>
    <i name="pawaedc"> -23573.70854696 </i>
    <i name="eentropy">     -0.01387715 </i>
    <i name="bandstr">   -814.42817451 </i>
    <i name="atom">  23292.47908388 </i>
    <i name="e_fr_energy">    -56.71729415 </i>
    <i name="e_wo_entrp">    -56.70341699 </i>
    <  <structure>
   <crystal>
    <varray na  <structure>
   <crystal>  <structure>
   <crystal>
    <varray name="basis" >
     <v>       5.14773737       0.00000000       0.00000000 </v>
     <v>       0.00000000       5.14773737       0.00000000 </v>
     <v>       0.00000000       0.00000000      35.26000000 </v>
    </varray>
    <i name="volume">    934.36179200 </i>
    <varray name="rec_basis" >
     <v>       0.19426010       0.00000000       0.00000000 </v>
     <v>       0.00000000       0.1942  <energy>
   <i name="e_fr_energy">    -57.16865584 </i>
   <i name="e_wo_entrp">    -57.15270632 </i>
   <i name="e_0_energy">    -57.16333933 </i>
  </energy>
  <time name="totalsc">  366.1  <time name="totalsc">  356.63  366.40</time>
 </calculation>
       0.99705048 </v>
    <v>       0.25000000       0.75000000       0.99705048 </v>
    <v>       0.75000000       0.75000000       0.99705048 </v>
    <v>       0.00000000       0.00000000       0.04866704 </v>
    <v>       0.50000000       0.00000000       0.04866704 </v>
    <v>       0.00000000       0.50000000       0.04866704 </v>
    <v>       0.50000000       0.50000000       0.04866704 </v>
    <v>       0.25018563       0.24989830       0.09971541 </v>
    <v>       0.75017184       0.25012931       0.10025761 </v>
    <v>       0.25018430       0.75022066       0.09971646 </v>
    <v>       0.75016927       0.75000332       0.10025639 </v>
    <v>       0.99890886       0.00010968       0.15041939 </v>
    <v>       0.50167256       0.00011262       0.15042966 </v>
    <v>       0.99613622       0.50010652       0.14992769 </v>
    <v>       0.50443996       0.50010368       0.14993909 </v>
    <v>       0.25017064       0.50009198       0.20437962 </v>
   </varray>
  </structure>
  <varray name="forces" >
   <v>       0.00001322      -0.01790519       0.24854019 </v>
   <v>       0.00000821      -0.02364155       0.28330521 </v>
   <v>       0.00001300       0.01790612       0.24853950 </v>
   <v>       0.00000883       0.02364106       0.28328454 </v>
   <v>      -0.09690102       0.00055206      -0.29419402 </v>
   <v>       0.10010291       0.00055336      -0.29444157 </v>
   <v>       0.01331442       0.00055131      -0.24391360 </v>
   <v>      -0.01021588       0.00054987      -0.24427606 </v>
   <v>      -0.00059515      -0.08288243      -0.00760605 </v>
   <v>      -0.00050080      -0.01365923      -0.05601398 </v>
   <v>      -0.00054963       0.08261972      -0.00777489 </v>
   <v>      -0.00046596       0.01339991      -0.05573446 </v>
   <v>       0.17630830      -0.00049972       0.12000357 </v>
   <v>      -0.17833846      -0.00061246       0.11880135 </v>
   <v>      -0.84391599      -0.00031586      -1.14631099 </v>
   <v>       0.84056302      -0.00022130      -1.14428233 </v>
   <v>       0.00115097      -0.00003568       2.19207359 </v>
  </varray>
  <varray name="stress" >
   <v>      -4.96352260       0.00008222      -0.02834642 </v>
   <v>       0.00008219     -10.61378234      -0.01259613 </v>
   <v>    <energy>
   <i name="e_fr_energy">    -56.85951836   <i    <i name="e_wo_entrp">    -56.84481196    <i   <i name="e_0_energy">    -56.85461623    <i  </energy>
  <time name="totalsc">  365.94  366.36</  <time name="totalsc">  366.02  366.37</time>
 </ca   <time name="dav">   15.99   15.99</time>
   <time name="total">   18.26   18.28</time>
   <energy>
    <   <time name="total">   18.73   18.75</time>
   <energy>
    <i name="alphaZ">    228.37091057 </i>
    <i name="ewald"> 196047.14439004 </i>
    <i name="hartreedc">-217834.55304232 </i>
    <i name="XCdc">    700.55291723 </i>
    <i name="pawpsdc">  21896.57399000 </i>
    <i name="pawaedc"> -23573.70729880 </i>
    <i name="eentropy">     -0.01271804 </i>
    <i name="bandstr">   -813.63551365 </i>
    <i name="atom">  23292.47908388 </i>
    <i name="e_fr_energy">    -56.78728110 </i>
    <i name="e_wo_entrp">    -56.77456306 </i>
    <i name="e_0_ene   <time name="dav">   21.48   21.48</time>
   <time name="total">   23.81   23.83</time>
   <energy>
    <   <time name="total">   24.00   24.01</time>
   <energy>
    <i name="e_fr_energy">    -56.87800764 </i>
    <i name="e_wo_entrp">    -56.86546014 </i>
    <i name="e_0_ene   <time name="dav">   17.33   17.33</time>
   <time name="tota   <time name="dav">   18.74   18.74</time>
   <time name="total">   21.02   21.03</time>
   <energy>
    <i name="e_fr_energy">    -56.87170984 </i>
    <i name="e_wo_entrp">    -56.85926157 </i>
    <i name="e_0_ene   <time name="dav">   17.   <time name="dav">   19.94   19.94<   <time name="dav">   20.27   20.27</time>
   <time name="total">   22.64   22.65</time>
   <energy>
    <i name="e_fr_energy">    -56.87242897 </i>
    <i name="e_wo_entrp">    -56.85965470 </i>
    <i name="e_0_ene   <time name="dav">   18.   <time name="dav   <time name="tota   <time name="dav">   17.43   17.43</time>
   <time name="total">   19.75   19.76</time>
   <energy>
    <i name="e_fr_energy">    -56.87328643 </i>
    <i name="e_wo_entrp">    -56.86139373 </i>
    <i name="e_0_ene   <time name="dav">   21.22   21.22</time>
   <time name="tota   <time name="dav">   19.88   19.88</time>
   <time name="total">   22.23   22.24</time>
   <energy>
    <i name="e_fr_energy">    -56.87092681 </i>
    <i name="e_wo_entrp">    -56.85870271 </i>
    <i name="e_0_ene   <time name="dav">   21.05   21.05</time>
   <time name="tota   <time name="dav">   21.42   21.42</time>
   <time name="total">   23.74   23.75</time>
   <energy>
    <i name="e_fr_energy">    -56.87110569 </i>
    <i name="e_wo_entrp">    -56.85873411 </i>
    <i name="e_0_ene   <time name="dav">   17.02   17.02</time>
   <time name="tota   <time name="dav">   17.36   17.36</time>
   <time name="total">   19.66   19.67</time>
   <energy>
    <i name="e_fr_energy">    -56.87112055 </i>
    <i name="e_wo_entrp">    -56.85875124 </i>
    <i name="e_0_ene   <time name="dav">   17.22   17.22</time>
   <time name="tota   <time name="dav">   18.09   18.09</time>
   <time name="total">   20.41   20.42</time>
   <energy>
    <i name="e_fr_energy">    -56.87111484 </i>
    <i name="e_wo_entrp">    -56.85873973 </i>
    <i name="e_0_ene   <time name="dav">   24.48   24.48</time>
   <time name="tota   <time name="dav">   27.12   27.12</time>
   <time name="total">   29.41   29.42</time>
   <energy>
    <i name="e_fr_energy">    -56.87111113 </i>
    <i name="e_wo_entrp">    -56.85870483 </i>
    <i name="e_0_ene   <time name="dav">   19.   <time name="dav   <time name="tota   <time name="dav">   22.83   22.83</time>
   <time name="total">   25.16   25.17</time>
   <energy>
    <i name="e_fr_energy">    -56.87110973 </i>
    <i name="e_wo_entrp">    -56.85870699 </i>
    <i name="e_0_ene   <time name="dav">   12.   <time name="dav">   16.69   16.69<   <time name="dav">   17.29   17.29</time>
   <time name="total">   19.57   19.58</time>
   <energy>
    <i name="e_fr_energy">    -56.87111045 </i>
    <i name="e_wo_entrp">    -56.85870787 </i>
    <i name="e_0_energy">    -56.86697626 </i>   <time name="dav">   16.04   16.04<   <time name="dav">   16.44   16.44</time>
   <time name="total">   18.68   18.69</time>
   <energy>
    <i name="e_fr_energy">    -56.87111086 </i>
    <i name="e_wo_entrp">    -56.85870704 </i>
    <i name="e_0_energy">    -56.86697626 </i>   <time name="dav">   13.47   13.48<   <time name="dav">   13.49   13.49</time>
   <time name="total">   15.28   15.29</time>
   <energy>
    <i name="e_fr_energy">    -56.87111163 </i>
    <i name="e_wo_entrp">    -56.85871036 </i>
    <i name="e_0_energy">    -56.86697788 </i>
   </energy>
  </scstep>
  <scstep>
   <time name="dav">    8.57    8.57</time>
   <time name="total">   10.22   10.23</time>
   <energy>
    <i name="e_fr_energy">    -56.87111266 </i>
    <i name="e_wo_entrp">    -56.85871164 </i>
    <i name="e_0_energy">    -56.86697899 </i>
   </energy>
  </scstep>
  <scstep>
   <time name="dav">    8.54    8.54</time>
   <time name="total">   10.17   10.18</time>
   <energy>
    <i name="e_fr_energy">    -56.87111381 </i>
    <i name="e_wo_entrp">    -56.85871246 </i>
    <i name="e_0_energy">    -56.86698003 </i>
   </energy>
  </scstep>
  <scstep>
   <time name="dav">    8.79    8.79</time>
   <time name="total">   10.42   10.43</time>
   <energy>
    <i name="e_fr_energy">    -56.87111427 </i>
    <i name="e_wo_entrp">    -56.85871301 </i>
    <i name="e_0_energy">    -56.86698051 </i>
   </energy>
  </scstep>
  <scstep>
   <time name="dav">    8.44    8.44</time>
   <time name="total">   10.06   10.07</time>
   <energy>
    <i name="e_fr_energy">    -56.87111545 </i>
    <i name="e_wo_entrp">    -56.85871465 </i>
    <i name="e_0_energy">    -56.86698185 </i>
   </energy>
  </scstep>
  <scstep>
   <time name="dav">    8.53    8.53</time>
   <time name="total">   10.18   10.19</time>
   <energy>
    <i name="e_fr_energy">    -56.87111643 </i>
    <i name="e_wo_entrp">    -56.85871526 </i>
    <i name="e_0_energy">    -56.86698271 </i>
   </energy>
  </scstep>
  <scstep>
   <time name="dav">    8.68    8.68</time>
   <time name="total">   10.34   10.36</time>
   <energy>
    <i name="e_fr_energy">    -56.87111669 </i>
    <i name="e_wo_entrp">    -56.85871542 </i>
    <i name="e_0_energy">    -56.86698293 </i>
   </energy>
  </scstep>
  <scstep>
   <time name="dav">    8.33    8.33</time>
   <time name="total">    9.97    9.99</time>
   <energy>
    <i name="e_fr_energy">    -56.87111707 </i>
    <i name="e_wo_entrp">    -56.85871565 </i>
    <i name="e_0_energy">    -56.86698326 </i>
   </energy>
  </scstep>
  <scstep>
   <time name="dav">    8.34    8.34</time>
   <time name="total">    9.99   10.00</time>
   <energy>
    <i name="e_fr_energy">    -56.87111731 </i>
    <i name="e_wo_entrp">    -56.85871584 </i>
    <i name="e_0_energy">    -56.86698348 </i>
   </energy>
  </scstep>
  <scstep>
   <time name="dav">    8.37    8.37</time>
   <time name="total">    8.91    8.92</time>
   <energy>
    <i name="alphaZ">    228.37091057 </i>
    <i name="ewald"> 196047.14439004 </i>
    <i name="hartreedc">-217835.68807769 </i>
    <i name="XCdc">    700.56662417 </i>
    <i name="pawpsdc">  21877.79771686 </i>
    <i name="pawaedc"> -23554.54890254 </i>
    <i name="eentropy">     -0.01240146 </i>
    <i name="bandstr">   -812.98046119 </i>
    <i name="atom">  23292.47908388 </i>
    <i name="e_fr_energy">    -56.87111736 </i>
    <i name="e_wo_  <energy>
   <i name="e_fr_energy">    -57.19127214 </i>
   <i name="e_wo_entrp">    -57.17562725 </i>
   <i name="e_0_energy">    -57.18605718 </i>
  </energy>
  <time name="totalsc">  412.20  412.43</time>
 </calculation>
<v>       0.00000000       5.14773737       0.00000000 </v>
     <v>       0.00000000       0.00000000      35.26000000 </v>
    </varray>
    <i name="volume">    934.36  <energy>
   <i name="e_fr_energy">    -57.19130951 </i>
   <i name="e_wo_entrp">    -57.17565251 </i>
   <i name="e_0_energy">    -57.18609051 </i>
  </energy>
  <time name="totalsc">  412.18  412.43</time>
 </calculation>
2836075 </v>
    </varray>
   </crystal>
   <varray name="positions" >
    <v>       0.25000000       0.25000000       0.99705048 </v>
    <v>       0.75000000       0.25000000       0.99705048 </v>
    <v>       0.25000000       0.75000000       0.99705048 </v>
    <v>       0.75000000       0.75000000       0.99705048 </v>
    <v>       0.00000000       0.00000000       0.04866704 </v>
    <v>       0.50000000       0.00000000       0.04866704 </v>
    <v>       0.00000000       0.50000000       0.04866704 </v>
    <v>       0.50000000       0.50000000       0.04866704 </v>
    <v>       0.25018286       0.24951271       0.09971024 </v>
    <v>       0.75016951       0.25006577       0.10021957 </v>
    <v>       0.25018174       0.75060503       0.09971118 </v>
    <v>       0.75016710       0.75006566       0.10021853 </v>
    <v>       0.99972909       0.00010735       0.15050090 </v>
    <v>       0.50084289       0.00010977       0.15051035 </v>
    <v>       0.99221010       0.50010507       0.14914912 </v>
    <v>       0.50835047       0.50010267       0.14916190 </v>
    <v>       0.25017599       0.50009061       0.20586848 </v>
   </varray>
  </structure>
  <varray name="forces" >
   <v>       0.00001927      -0.02082729       0.25180792 </v>
   <v>       0.00000115      -0.02574792       0.28259549 </v>
   <v>       0.00001894       0.02083461       0.25180799 </v>
   <v>       0.00000180       0.02575436       0.28257334 </v>
   <v>      -0.09046494       0.00055502      -0.30081053 </v>
   <v>       0.09365067       0.00055742      -0.30104873 </v>
   <v>       0.02321543       0.00054797      -0.24556812 </v>
   <v>      -0.02016985       0.00054581      -0.24588421 </v>
   <v>      -0.00050128      -0.07948410      -0.01972999 </v>
   <v>      -0.00057882      -0.09346553      -0.12770664 </v>
   <v>      -0.00047155       0.07927355      -0.01989839 </v>
   <v>      -0.00054262       0.09319885      -0.12759656 </v>
   <v>       0.14120084      -0.00045260       0.10787298 </v>
   <v>      -0.14330433      -0.00054174       0.10688408 </v>
   <v>      -0.28355570      -0.00041183      -0.49592330 </v>
   <v>       0.28078069      -0.00032727      -0.49565854 </v>
   <v>       0.00070029      -0.00000930       1.09628320 </v>
  </varray>
  <varray name="stress" >
   <v>      -6.05480908       0.00007417      -0.03065778 </v>
   <v>       0.00007405     -10.22139103      -0.01265075 </v>
   <v>      -0.03065756      -0.012650  <energy>
   <i name="e_fr_energy">    -56.96222115 </i>
   <i name="e_wo_entrp">    -56.94860026 </i>
   <i name="e_0_energy">    -56.95768086 </i>
  </energy>
  <time name="totalsc">  412.06  412.  <time name="totalsc">  412.13  412.45</time>
 </ca   <time name="dav">   15.96   15.96</time>
   <time name="total">   18.40   18.42</time>
   <energy>
    <   <time name="total">   1   <time name="total">   18.63   18.64</time>
   <energy>
    <i name="alphaZ">    228.37091057 </i>
    <i name="ewald"> 195904.00621992 </i>
    <i name="hartreedc">-217693.06825611 </i>
    <i name="XCdc">    700.45540375 </i>
    <i name="pawpsdc">  21877.79723645 </i>
    <i name="pawaedc"> -23554.54824655 </i>
    <i name="eentropy">     -0.01173185 </i>
    <i name="bandstr">   -812.29634118 </i>
    <i name="atom">  23292.47908388 </i>
    <i name="e_fr_energy">    -56.81572113 </i>
    <i name="e_wo_entrp">    -56.80398928   <time name="dav">   21.64   21.64</time>
   <time name="total">   23.99   24.01</time>
   <energy>
    <i name="e_fr_energy">    -   <time name="total">   24.03   24.05</time>
   <energy>
    <i name="e_fr_energy">    -56.94247659 </i>
    <i name="e_wo_entrp">    -56.93120651   <time name="dav">   17.29   17.29</time>
   <time name="total">   19.60   19.61</time>
   <energy>
    <   <time name="total">   2   <time name="total">   20.56   20.57</time>
   <energy>
    <i name="e_fr_energy">    -56.93517838 </i>
    <i name="e_wo_entrp">    -56.92389682   <time name="dav">   19.37   19.37</time>
   <time name="   <time name="total">   22.04   <time name="dav   <time name="total">   2   <time name="total">   22.49   22.50</time>
   <energy>
    <i name="e_fr_energy">    -56.93535687 </i>
    <i name="e_wo_entrp">    -56.92376391   <time name="dav">   17.79   17.79</time>
   <time name="total">   20.10   20.12</time>   <time name="dav   <time name="total">   1   <time name="total">   19.75   19.76</time>
   <energy>
    <i name="e_fr_energy">    -56.93553831 </i>
    <i name="e_wo_entrp">    -56.92481730   <time name="dav">   21.26   21.26</time>
   <time name="total">   23.43   23.44</time>
   <energy>
    <i name="e_fr_energy">    -   <time name="total">   22.05   22.06</time>
   <energy>
    <i name="e_fr_energy">    -56.93378418 </i>
    <i name="e_wo_entrp">    -56.92268699   <time name="dav">   20.95   20.95</time>
   <time name="total">   23.14   23.15</time>
   <energy>
    <i name="e_fr_energy">    -   <time name="total">   23.80   23.81</time>
   <energy>
    <i name="e_fr_energy">    -56.93392495 </i>
    <i name="e_wo_entrp">    -56.92276453   <time name="dav">   16.85   16.85</time>
   <time name="total">   19.06   19.07</time>   <time name="dav">   17.75   17.75</time>
   <time name="total">   20.03   20.04</time>
   <energy>
    <i name="e_fr_energy">    -56.93395147 </i>
    <i name="e_wo_entrp">    -56.92280506   <time name="dav">   17.14   17.14</time>
   <time name="total">   19.34   19.35</time>   <time name="dav">   17.03   17.03</time>
   <time name="total">   19.28   19.30</time>
   <energy>
    <i name="e_fr_energy">    -56.93393562 </i>
    <i name="e_wo_entrp">    -56.92276852   <time name="   <time name="dav">   26.23    <time name="   <   <time name="dav">   26.   <time name="dav">   27.47   27.47</time>
   <time name="total">   29.78   29.79</time>
   <energy>
    <i name="e_fr_energy">    -56.93392765 </i>
    <i name="e_wo_entrp">    -56.92270084   <time name="   <time name="dav">   21.59    <time name="   <   <time name="dav">   21.   <time name="dav">   22.00   22.00</time>
   <time name="total">   24.29   24.30</time>
   <energy>
    <i name="e_fr_energy">    -56.93392431 </i>
    <i name="e_wo_entrp">    -56.92271325   <time name="   <time name="dav">   17.08   17.08</time>
   <   <time name="dav">   17.   <time name="dav">   17.47   17.47</time>
   <time name="total">   19.75   19.76</time>
   <energy>
    <i name="e_fr_energy">    -56.93392435 </i>
    <i name="e_wo_entrp">    -56.92271393   <time name="   <time name="dav">   16.14   16.14</time>
   <   <time name="dav">   16.   <time name="dav">   17.42   17.42</time>
   <time name="total">   19.69   19.70</time>
   <energy>
    <i name="e_fr_energy">    -56.93392458 </i>
    <i name="e_wo_entrp">    -56.92271395 </i>
    <i na   <time name="dav">   11.30   11.30</time>
   <   <time name="dav">   11.   <time name="dav">   16.91   16.91</time>
   <time name="total">   19.19   19.20</time>
   <energy>
    <i name="e_fr_energy">    -56.93392538 </i>
    <i name="e_wo_entrp">    -56.92271825 </i>
    <i name="e_0_energy">    -56.93018967 </i>
   </energ   <time name="dav">   11.   <time name="dav">   12.08   12.08</time>
   <time name="total">   14.39   14.40</time>
   <energy>
    <i name="e_fr_energy">    -56.93392609 </i>
    <i name="e_wo_entrp">    -56.92271779 </i>
    <i name="e_0_energy">    -56.93018999 </i>
   </energ   <time name="dav">   11.   <time name="dav">   12.07   12.07</time>
   <time name="total">   14.38   14.39</time>
   <energy>
    <i name="e_fr_energy">    -56.93392643 </i>
    <i name="e_wo_entrp">    -56.92271819 </i>
    <i name="e_0_energy">    -56.93019035 </i>
   </energy>
  </scstep>
  <scstep>
   <time name="dav">   11.59   11.59</time>
   <time name="total">   13.88   13.89</time>
   <energy>
    <i name="e_fr_energy">    -56.93392720 </i>
    <i name="e_wo_entrp">    -56.92271914 </i>
    <i name="e_0_energy">    -56.93019118 </i>
   </energy>
  </scstep>
  <scstep>
   <time name="dav">   11.55   11.55</time>
   <time name="total">   13.84   13.85</time>
   <energy>
    <i name="e_fr_energy">    -56.93392826 </i>
    <i name="e_wo_entrp">    -56.92272002 </i>
    <i name="e_0_energy">    -56.93019218 </i>
   </energy>
  </scstep>
  <scstep>
   <time name="dav">   11.90   11.90</time>
   <time name="total">   14.20   14.21</time>
   <energy>
    <i name="e_fr_energy">    -56.93392873 </i>
    <i name="e_wo_entrp">    -56.92272043 </i>
    <i name="e_0_energy">    -56.93019263 </i>
   </energy>
  </scstep>
  <scstep>
   <time name="dav">   11.19   11.19</time>
   <time name="total">   13.44   13.45</time>
   <energy>
    <i name="e_fr_energy">    -56.93392928 </i>
    <i name="e_wo_entrp">    -56.92272088 </i>
    <i name="e_0_energy">    -56.93019315 </i>
   </energy>
  </scstep>
  <scstep>
   <time name="dav">   11.08   11.08</time>
   <time name="total">   13.27   13.28</time>
   <energy>
    <i name="e_fr_energy">    -56.93392975 </i>
    <i name="e_wo_entrp">    -56.92272158 </i>
    <i name="e_0_energy">    -56.93019369 </i>
   </energy>
  </scstep>
  <scstep>
   <time name="dav">    8.87    8.87</time>
   <time name="total">   10.63   10.64</time>
   <energy>
    <i name="e_fr_energy">    -56.93392987 </i>
    <i name="e_wo_entrp">    -56.92272179 </i>
    <i name="e_0_energy">    -56.93019384 </i>
   </energy>
  </scstep>
  <scstep>
   <time name="dav">    8.17    8.17</time>
   <time name="total">    9.71    9.72</time>
   <energy>
    <i name="e_fr_energy">    -56.93393004 </i>
    <i name="e_wo_entrp">    -56.92272184 </i>
    <i name="e_0_energy">    -56.93019398 </i>
   </energy>
  </scstep>
  <scstep>
   <time name="dav">    6.84    6.84</time>
   <time name="total">    7.36    7.37</time>
   <energy>
    <i name="alphaZ">    228.37091057 </i>
    <i name="ewald"> 195904.00621992 </i>
    <i name="hartreedc">-217693.79626774 </i>
    <i name="XCdc">    700.47715428 </i>
    <i name="pawpsdc">  21861.36009719 </i>
    <i name="pawaedc"> -23537.77131999 </i>
    <i name="eentropy">     -0.01120824 </i>
    <i name="bandstr">   -812.04859995 </i>
    <i name="atom">  23292.47908388 </i>
    <i name="e_fr_energy">    -56.93393008 </i>
    <i name="e_wo_entrp">    -56.92272185 </i>
    <i name="e_0_energy">    -56.93019401 </i>
   </energy>
  </scstep>
  <structure>
   <crystal>
    <varray name="basis" >
     <v>       5.14773737       0.00000000       0.00000000 </v>
     <v>       0.00000000       5.14773737       0.00000000 </v>
     <v>       0.00000000       0.00000000      35.26000000 </v>
    </varray>
    <i name="volume">    934.36179200 </i>
    <varray name="rec_basis" >
     <v>       0.19426010       0.00000000       0.00000000 </v>
     <v>       0.00000000       0.19426010       0.00000000 </v>
     <v>       0.00000000       0.00000000       0.02836075 </v>
    </varray>
   </crystal>
   <varray name="positions" >
    <v>       0.25000000       0.25000000       0.99705048 </v>
    <v>       0.75000000       0.25000000       0.99705048 </v>
    <v>       0.25000000       0.75000000       0.99705048 </v>
    <v>       0.75000000       0.75000000       0.99705048 </v>
    <v>       0.00000000       0.00000000       0.04866704 </v>
    <v>       0.50000000       0.00000000       0.04866704 </v>
    <v>       0.00000000       0.50000000       0.04866704 </v>
    <v>       0.50000000       0.50000000       0.04866704 </v>
    <v>       0.25017703       0.24858863       0.09967675 </v>
    <v>       0.75016278       0.24897915       0.10000281 </v>
    <v>       0.25017626       0.75152665       0.09967741 </v>
    <v>       0.75016079       0.75114917       0.10000196 </v>
    <v>       1.00137068       0.00010209       0.15068399 </v>
    <v>       0.49917685       0.00010347       0.15069177 </v>
    <v>       0.98891352       0.50010030       0.14830739 </v>
    <v>       0.51161479       0.50009888       0.14832061 </v>
    <v>       0.25018414       0.50008984       0.20772921 </v>
   </varray>
  </structure>
  <varray name="forces" >
   <v>       0.00001481      -0.02260678       0.25324910 </v>
   <v>      -0.00000203      -0.02656012       0.28025177 </v>
   <v>       0.00001436       0.02260195       0.25325131 </v>
   <v>      -0.00000139       0.02655679       0.28022870 </v>
   <v>      -0.07673875       0.00055655      -0.33040243 </v>
   <v>       0.07990408       0.00055974      -0.33059523 </v>
     <energy>
   <i name="e_fr_energy">    -57.21132617 </i>
   <i name="e_wo_entrp">    -57.19602235 </i>
   <i name="e_0_energy">    -57.20622489 </i>
  </energy>
  <time name="totalsc">  448.84  449.18</time>
 </calculation>
name="e_0_energy">    -57.20625832 </i>
  </energy>
  <time name="totalsc">  448.80  449.14</time>
 </calculation>
1607755 </i>
   <i name="e_wo_entrp">    -57.00346683 </i>
   <i name="e_0_energy">    -57.01187397 </i>
  </energy>
  <time name="totalsc">  448.86  449.22</time>
 </calculation>
otalsc">  448.79  449.17</time>
 </calculation>
v>      -0.16769679      -0.00038436       0.03117855 </v>
   <v>       0.00015392       0.00001434       0.21733357 </v>
  </varray>
  <varray name="stress" >
   <v>      -6.76258472       0.00010859      -0.03153495 </v>
   <v>       0.00010853      -9.87731097      -0.01216223 </v>
   <v>      -0.03153503      -0.01216238      -2.36342030 </v>
  </varray>
  <energy>
   <i name="e_fr_energy">    -56.93393008 </i>
   <i name="e_wo_entrp">    -56.92272185 </i>
   <i name="e_0_energy">    -56.93019401 </i>
  </energy>
  <time name="totalsc">  4   <time name="dav">   15.   <time name="dav   <time name="total">   1   <time name="total">   18.57   18.59</time>
   <en   <time name="total">   18.88   18.89</time>
   <energy>
    <i name="alphaZ">    228.37091057 </i>
    <i name="ewald"> 195796.60277919 </i>
    <i name="hartreedc">-217586.70294137 </i>
    <i name="XCdc">    700.42687525 </i>
    <i name="pawpsdc">  21861.36008733 </i>
    <i name="pawaedc"> -23537.77134077 </i>
    <i name="eentropy">     -0.01254263 </i>
    <i name="bandstr">   -811.68380758 </i>
    <i name="atom">  23292.47908388 </i>
    <i name="e_fr_energy">    -56.93089614 </i>
    <i name="e_wo_entrp">    -56.91835351 </i>
    <   <time name="dav">   21.   <time name="dav   <time name="total">   2   <time name="total">   23.87   23.88</time>
   <en   <time name="total">   23.97   23.99</time>
   <energy>
    <i name="e_fr_energy">    -56.94492128 </i>
    <i name="e_wo_entrp">    -56.93265692 </i>
    <   <time name="dav">   17.   <time name="dav   <time name="total">   1   <time name="total">   20.20   20.22</time>
   <en   <time name="total">   19.89   19.91</time>
   <energy>
    <i name="e_fr_energy">    -56.94459240 </i>
    <i name="e_wo_entrp">    -56.93225264 </i>
    <   <time name="dav">   19.79   19.79</time>
   <time name="total">   21.99   22.01</time>
   <en   <time name="total">   21.97   21.99</time>
   <energy>
    <i name="e_fr_energy">    -57.22354360 </i>
    <i name="e_wo_entrp">    -57.20827662 </i>
    <i name="e_0_energy">    -5   <time name="dav">   18.72   18.71</time>
   <time name="total">   20.86   20.87</time>
   <en   <time name="total">   20.94   20.95</time>
   <energy>
    <i name="e_fr_energy">    -57.22339150 </i>
    <i name="e_wo_entrp">    -57.20833250 </i>
    <i name="e_0_energy">    -5   <time name="dav">   23.85   23.85</time>
   <time name="total">   26.02   26.03</time>
   <en   <time name="total">   2   <time name="total">   27.34   27.36</time>
   <energy>
    <i name="e_fr_energy">    -56.94440805 </i>
    <i name="e_wo_entrp">    -56.93195805 </i>
    <   <time name="dav">   18.   <time name="dav">   22.18   22.18</time>
   <time name="total">   24.50   24.51</time>
   <en   <time name="total">   22.40   22.41</time>
   <energy>
    <i name="e_fr_energy">    -56.94426850 </i>
    <i name="e_wo_entrp">    -56.93191985 </i>
    <   <time name="dav">   16.   <time name="dav">   17.40   17.40</time>
   <time   <time name="dav">   19.66   19.66</time>
   <time name="total">   21.96   21.97</time>
   <energy>
    <i name="e_fr_energy">    -56.94428209 </i>
    <i name="e_wo_entrp">    -56.93195231 </i>
    <   <time name="dav">   17.   <time name="dav">   16.74   16.74</time>
   <time   <time name="dav">   17.36   17.36</time>
   <time name="total">   19.68   19.69</time>
   <energy>
    <i name="e_fr_energy">    -56.94428109 </i>
    <i name="e_wo_entrp">    -56.93195044 </i>
    <   <time name="dav">   20.   <time name="dav">   20.04   20.04</time>
   <time   <time name="dav">   22.53   22.53</time>
   <time name="total">   24.85   24.86</time>
   <energy>
    <i name="e_fr_energy">    -56.94427915 </i>
    <i name="e_wo_entrp">    -56.93194224 </i>
    <   <time name="dav">   19.   <time name="dav">   19.00   19.00</time>
   <time   <time name="dav">   17.07   17.07</time>
   <time name="total">   19.38   19.39</time>
   <energy>
    <i name="e_fr_energy">    -56.94427905 </i>
    <i name="e_wo_entrp">    -56.93194090 </i>
    <   <time name="dav">   16.   <time name="dav">   18.25   18.25</time>
   <time   <time name="dav">   17.29   17.29</time>
   <time name="total">   19.51   19.52</time>
   <energy>
    <i name="e_fr_energy">    -56.94427886 </i>
    <i name="e_wo_entrp">    -56.93194102 </i>
    <i name="e_0_energy">    -5   <time name="dav">   16.05   16.05</time>
   <time   <time name="dav">   17.74   17.74</time>
   <time name="total">   19.88   19.89</time>
   <energy>
    <i name="e_fr_energy">    -56.94427899 </i>
    <i name="e_wo_entrp">    -56.93194196 </i>
    <i name="e_0_energy">    -56.94016665 </i>
   </energy>
  </scstep>
  <scstep>
   <time name="dav">    8.72    8.72</time>
   <time name="total">   10.44   10.45</time>
   <energy>
    <i name="e_fr_energy">    -56.94427887 </i>
    <i name="e_wo_entrp">    -56.93194134 </i>
    <i name="e_0_energy">    -56.94016636 </i>
   </energy>
  </scstep>
  <scstep>
   <time name="dav">    7.91    7.91</time>
   <time name="total">    8.47    8.47</time>
   <energy>
    <i name="alphaZ">    228.37091057 </i>
    <i name="ewald"> 195796.60277919 </i>
    <i name="hartreedc">-217586.73467059 </i>
    <i name="XCdc">    700.44229097 </i>
    <i name="pawpsdc">  21854.54648640 </i>
    <i name="pawaedc"> -23530.82623443 </i>
    <i name="eentropy">     -0.01233729 </i>
    <i name="bandstr">   -811.81258765 </i>
    <i name="atom">  23292.47908388 </i>
    <i name="e_fr_energy">    -56.94427895 </i>
    <i name="e_wo_entrp">    -56.93194166 </i>
    <i name="e_0_energy">    -56.94016652 </i>
   </energy>
  </scstep>
  <structure>
   <crystal>
    <varray name="basis" >
     <v>       5.14773737       0.00000000       0.00000000 </v>
     <v>       0.00000000       5.14773737       0.00000000 </v>
     <v>       0.00000000       0.00000000      35.26000000 </v>
    </varray>
    <i name="volume">    934.36179200 </i>
    <varray name="rec_basis" >
     <v>       0.19426010       0.00000000       0.00000000 </v>
     <v>       0.00000000       0.19426010       0.00000000 </v>
     <v>       0.00000000       0.00000000       0.02836075 </v>
    </varray>
   </crystal>
   <varray name="positions" >
    <v>       0.25000000       0.25000000       0.99705048 </v>
    <v>       0.75000000       0.25000000       0.99705048 </v>
    <v>       0.25000000       0.75000000       0.99705048 </v>
    <v>       0.75000000       0.75000000       0.99705048 </v>
    <v>       0.00000000       0.00000000       0.04866704 </v>
    <v>       0.50000000       0.00000000       0.04866704 </v>
    <v>       0.00000000       0.50000000       0.04866704 </v>
    <v>       0.50000000       0.50000000       0.04866704 </v>
    <v>       0.25016998       0.24783182       0.09961544 </v>
    <v>       0.75015293       0.24711892       0.09970541 </v>
    <v>       0.25016935       0.75228034       0.09961589 </v>
    <v>       0.75015156       0.75300462       0.09970454 </v>
    <v>       1.00237970       0.00009674       0.15084972 </v>
    <v>       0.49814206       0.00009731       0.15085560 </v>
    <v>       0.99124780       0.50009449       0.14837371 </v>
    <v>       0.50925073       0.50009350       0.14838478 </v>
    <v>       0.25018631       0.50008902       0.20817650 </v>
   </varray>
  </structure>
  <varray name="forces" >
   <v>       0.00001024      -0.02101457       0.25016090 </v>
   <v>       0.00002355      -0.02471967       0.27754399 </v>
   <v>       0.00001032       0.02104401       0.25016596 </v>
   <v>       0.00002376       0.02474881       0.27752174 </v>
   <v>      -0.06440169       0.00057876      -0.36977717 </v>
   <v>       0.06754540       0.00058083      -0.36991558 </v>
   <v>       0  <energy>
   <i name="e_fr_energy">    -57.22326159 </i>
   <i name="e_wo_entrp">    -57.20810462 </i>
   <i name="e_0_energy">    -57.21820926 </i>
  </energy>
  <time name="totalsc">  319.15  319.37</time>
 </calculation>
e="totalsc">  319.10  319.34</time>
 </calculation>
3      -0.02142288 </v>
   <v  <energy>
   <i name="e_fr_energy">    -57.03121491 </i>
   <i name="e_wo_entrp">    -57.01778813 </i>
   <i name="e_0_energy">    -57.02673932 </i>
  </energy>
  <time name="totalsc">  319.09  319.37</time>
 </calculation>
i>
  </energy>
  <time name="totalsc">  319.05  319.29</time>
 </calculation>
2 </v>
   <v>      -0.00023409      -0.00021810       0.17814918 </v>
  </varray>
  <varray name="stress" >
   <v>      -7.22360105       0.00015098      -0.02978055 </v>
   <v>       0.00015096     -10.10595261      -0.01100776 </v>
   <v>      -0.02978046      -0.01100782      -2.73577580 </v>
  </varray>
  <energy>
   <i name="e_fr_energy">    -56.94427895 </i>
   <i name="e_wo_entrp">    -56.93194166 </i>
   <i name="e_0_energy">    -56.94016652 </i>
  </energy>
  <time name="totalsc">  319.04  319.29</time>
 </calculation>
 <calculation>
  <scstep>
   <time name="dav">   16.24   16.24</time>
   <time name="total">   18.58   18.59</time>
   <energy>
    <i name="alphaZ">    228.370910   <time name="total">   18.66   18.68</time>
   <energy>
    <i name="alphaZ">    228.37091057 </i>
    <i name="ewald"> 195703.51823836 </i>
    <i name="hartreedc">-217493.24700470 </i>
    <i name="XCdc">    700.38878473 </i>
    <i name="pawpsdc">  21850.31743103 </i>
    <i name="pawaedc"> -23526.53247160 </i>
    <i name="eentropy">     -0.01423030 </i>
    <i name="bandstr">   -812.30500096 </i>
    <i name="atom">  23292.47908388 </i>
    <i name="e_fr_energy">    -57.02425900 </i>
    <i name="e_wo_entrp">    -57.0100   <time name="dav">   21.81   21.81</time>
   <time name="total">   24.15   24.16</time>
   <energy>
    <i name="e_fr_energy">    -56.94832047 </i>
    <i name="e_wo_entrp">    -56.93576595 </i>
    <i name="e_0_energy">    -56.94413563 </i>
   </energy>
  </scstep>
  <scstep>
   <time name="dav">   19.74   19.74</time>
   <time name="total">   22.07   22.08</time>
   <energy>
    <i name="e_fr_energy">    -56.94817991 </i>
    <i name="e_wo_entrp">    -56.93539034 </i>
    <i name="e_0_energy">    -56.94391672 </i>
   </energy>
  </scstep>
  <scstep>
   <time name="dav">   17.54   17.54</time>
   <time name="total">   19.77   19.78</time>
   <energy>
    <i name="e_fr_energy">    -56.94818517 </i>
    <i name="e_wo_entrp">    -56.93553723 </i>
    <i name="e_0_energy">    -56.94396919 </i>
   </energy>
  </scstep>
  <scstep>
   <time name="dav">   19.28   19.28</time>
   <time name="total">   21.58   21.59</time>
   <energy>
    <i name="e_fr_energy">    -56.94809674 </i>
    <i name="e_wo_entrp">    -56.93537080 </i>
    <i name="e_0_energy">    -56.94385476 </i>
   </energy>
  </scstep>
  <scstep>
   <time name="dav">   24.08   24.08</time>
   <time name="total">   26.36   26.37</time>
   <energy>
    <i na   <time name="total">   2   <time name="total">   28.90   28.91</time>
   <energy>
    <i name="e_fr_energy">    -57.03566465 </i>
    <i name="e_wo_entrp">    -57.0215   <time name="dav">   22.76   22.76</time>
   <time name="total">   25.06   25.07</time>
   <energy>
    <i name="e_fr_energy">    -56.9   <time name="total">   25.83   25.85</time>
   <energy>
    <i name="e_fr_energy">    -57.03557203 </i>
    <i name="e_wo_entrp">    -57.0215   <time name="dav">   18.33   18.33</time>
   <time name="total">   20.63   20.64</time>
   <energy>
    <i name="e_fr_energy">    -56.9   <time name="total">   20.05   20.07</time>
   <energy>
    <i name="e_fr_energy">    -57.03558422 </i>
    <i name="e_wo_entrp">    -57.0215   <time name="dav">   17.80   17.80</time>
   <time name="total">   20.08   20.09</time>
   <energy>
    <i name="e_fr_energy">    -56.9   <time name="total">   19.35   19.36</time>
   <energy>
    <i name="e_fr_energy">    -57.03558361 </i>
    <i name="e_wo_entrp">    -57.0215   <time name="dav">   18.72   18.72</time>
   <time name="total">   20.97   20.98</time>
      <time name="dav">   21.91   21.91</time>
   <time name="total">   24.27   24.28</time>
   <energy>
    <i name="e_fr_energy">    -57.03558177 </i>
    <i name="e_wo_entrp">    -57.0215   <time name="   <time name="dav">   20.86   20.86</time>
   <time name="total">   23.12   2   <time name="dav">   21.07   21.08</time>
   <time name="total">   23.41   23.43</time>
   <energy>
    <i name="e_fr_energy">    -57.03558150 </i>
    <i name="e_wo_entrp">    -57.0215   <time name="   <time name="dav">   16.71   16.71</time>
   <time name="total">   17.44   1   <time name="dav">   16.87   16.88</time>
   <time name="total">   17.62   17.63</time>
   <energy>
    <i name="alphaZ">    228.37091057 </i>
    <i name="ewald"> 195703.51823836 </i>
   <time name="dav">   11.71   11.71</tim   <time name="dav">   14.   <time name="dav">   13.99   13.99</time>
   <time name="total">   14.74   14.75</time>
   <energy>
    <i name="alphaZ">    228.37091057 </i>
    <i name="ewald"> 195995.85984234 </i>
    <i name="hartreedc">-2   <time name="dav">   11.09   11.09</time>
   <time name="total">   13.33   13.34</time>
   <energy>
    <i name=  <structure>
   <crystal>
    <varray name="basis" >
     <v>       5.1477373  <structure>
   <crystal>
    <varray name="basis" >
     <v>       5.14773737       0.   <time name="dav">    9.95    9.95</time>
[...]
     </set>
    </set>
   </array>
  </eigenvalues>
  <separator name="orbital  <separator name=   <v name="MAGDIPOLOUT">    <v name="MAGDIPOLOUT">      0.00000000      0.000  </separator>
  <dos>
   <i name="efermi  <dos>
   <i name="efermi">     -1.51256254 </i>
   <total>
    <array>
     <dimension dim="1">gridpoints</dimension>
     <dimension dim="2">spin</dimension>
     <field>energy</field>
     <field>total</field>
     <field>integrated</field>
     <set>
      <set comment="spin 1">
       <r>   -10.9968     0.0000     0.0000 </r>
       <r>   -10.9421     0.0000     0.0000 </r>
       <r>   -10.8874     0.0000     0.0000 </r>
       <r>   -10.8328    -0.0000    -0.0000 </r>
       <r>   -10.7781    -0.0000    -0.0000 </r>
       <r>   -10.7235    -0.0000    -0.0000 </r>
       <r>   -10.6688    -0.0000    -0.0000 </r>
       <r>   -10.6141    -0.0000    -0.0000 </r>
       <r>   -10.5595    -0.0000    -0.0000 </r>
       <r>   -10.5048    -0.0000    -0.0000 </r>
       <r>   -10.4502    -0.0000    -0.0000 </r>
       <r>   -10.3955    -0.0000    -0.0000 </r>
       <r>   -10.3409    -0.0001    -0.0000 </r>
       <r>   -10.2862    -0.0015    -0.0001 </r>
       <r>   -10.2315    -0.0188    -0.0011 </r>
       <r>   -10.1769    -0.1113    -0.0072 </r>
       <r>   -10.1222    -0.1915    -0.0177 </r>
       <r>   -10.0676     0.6652     0.0187 </r>
       <r>   -10.0129     3.0008     0.1827 </r>
       <r>    -9.9582     3.9823     0.4004 </r>
       <r>    -9.9036     1.9737     0.5083 </r>
       <r>    -9.8489     0.1104     0.5143 </r>
       <r>    -9.7943    -0.1942     0.5037 </r>
       <r>    -9.7396    -0.0597     0.5004 </r>
       <r>    -9.6849    -0.0072     0.5000 </r>
       <r>    -9.6303    -0.0005     0.5000 </r>
       <r>    -9.5756    -0.0028     0.4998 </r>
       <r>    -9.5210    -0.0367     0.4978 </r>
       <r>    -9.4663    -0.2189     0.4859 </r>
       <r>    -9.4116    -0.3866     0.4647 </r>
       <r>    -9.3570     1.2874     0.5351 </r>
       <r>    -9.3023     5.9432     0.8600 </r>
       <r>    -9.2477     7.9829     1.2963 </r>
       <r>    -9.1930     4.0104     1.5155 </r>
       <r>    -9.1383     0.2449     1.5289 </r>
       <r>    -9.0837    -0.3908     1.5075 </r>
       <r>    -9.0290    -0.1220     1.5009 </r>
       <r>    -8.9744    -0.0149     1.5000 </r>
       <r>    -8.9197    -0.0012     1.5000 </r>
       <r>    -8.8650    -0.0060     1.4997 </r>
       <r>    -8.8104    -0.0525     1.4968 </r>
       <r>    -8.7557    -0.1866     1.4866 </r>
       <r>    -8.7011     0.0376     1.4886 </r>
       <r>    -8.6464     1.7352     1.5835 </r>
       <r>    -8.5918     3.7313     1.7874 </r>
       <r>    -8.5371     3.1996     1.9623 </r>
       <r>    -8.4824     2.5416     2.1013 </r>
       <r>    -8.4278     3.7183     2.3045 </r>
       <r>    -8.3731     3.0889     2.4733 </r>
       <r>    -8.3185     0.8129     2.5178 </r>
       <r>    -8.2638    -0.1859     2.5076 </r>
       <r>    -8.2091    -0.2209     2.4955 </r>
       <r>    -8.1545    -0.3826     2.4746 </r>
       <r>    -8.0998     0.0021     2.4747 </r>
       <r>    -8.0452     3.2821     2.6541 </r>
       <r>    -7.9905     7.5041     3.0643 </r>
       <r>    -7.9358     6.1697     3.4015 </r>
       <r>    -7.8812     2.9505     3.5628 </r>
       <r>    -7.8265     5.4120     3.8586 </r>
       <r>    -7.7719     7.7755     4.2836 </r>
       <r>    -7.7172     4.1749     4.5118 </r>
       <r>    -7.6625     0.3004     4.5282 </r>
       <r>    -7.6079    -0.5731     4.4969 </r>
       <r>    -7.5532    -0.5033     4.4694 </r>
       <r>    -7.4986     0.8189     4.5142 </r>
       <r>    -7.4439     4.9769     4.7862 </r>
       <r>    -7.3892     7.7630     5.2105 </r>
       <r>    -7.3346     4.7486     5.4701 </r>
       <r>    -7.2799     1.5786     5.5564 </r>
       <r>    -7.2253     2.7750     5.7080 </r>
       <r>    -7.1706     3.7526     5.9132 </r>
       <r>    -7.1159     1.7611     6.0094 </r>
       <r>    -7.0613    -0.1159     6.0031 </r>
       <r>    -7.0066    -0.5983     5.9704 </r>
       <r>    -6.9520     0.6299     6.0048 </r>
       <r>    -6.8973     4.9242     6.2740 </r>
       <r>    -6.8427     7.8723     6.7043 </r>
       <r>    -6.7880     4.6249     6.9570 </r>
       <r>    -6.7333     1.8756     7.0596 </r>
       <r>    -6.6787     5.8800     7.3810 </r>
       <r>    -6.6240    12.0910     8.0418 </r>
       <r>    -6.5694    11.9141     8.6931 </r>
       <r>    -6.5147     5.1112     8.9724 </r>
       <r>    -6.4600     1.4223     9.0502 </r>
       <r>    -6.4054     6.4235     9.4013 </r>
       <r>    -6.3507    16.7774    10.3183 </r>
       <r>    -6.2961    22.6469    11.5562 </r>
       <r>    -6.2414    17.1942    12.4960 </r>
       <r>    -6.1867     7.5260    12.9074 </r>
       <r>    -6.1321     6.6281    13.2697 </r>
       <r>    -6.0774    18.6749    14.2904 </r>
       <r>    -6.0228    32.8154    16.0841 </r>
       <r>    -5.9681    34.3455    17.9614 </r>
       <r>    -5.9134    22.1566    19.1725 </r>
       <r>    -5.8588    13.9654    19.9358 </r>
       <r>    -5.8041    18.4550    20.9446 </r>
       <r>    -5.7495    23.1106    22.2078 </r>
       <r>    -5.6948    24.5607    23.5502 </r>
       <r>    -5.6401    30.7925    25.2333 </r>
       <r>    -5.5855    44.2995    27.6547 </r>
       <r>    -5.5308    60.2243    30.9465 </r>
       <r>    -5.4762    63.7095    34.4289 </r>
       <r>    -5.4215    52.4748    37.2971 </r>
       <r>    -5.3668    44.4958    39.7292 </r>
       <r>    -5.3122    40.1121    41.9217 </r>
       <r>    -5.2575    32.6862    43.7083 </r>
       <r>    -5.2029    28.8224    45.2837 </r>
       <r>    -5.1482    25.9323    46.7012 </r>
       <r>    -5.0936    23.0459    47.9609 </r>
       <r>    -5.0389    31.4676    49.6809 </r>
       <r>    -4.9842    43.0238    52.0325 </r>
       <r>    -4.9296    42.8471    54.3745 </r>
       <r>    -4.8749    42.8547    56.7169 </r>
       <r>    -4.8203    40.9799    58.9569 </r>
       <r>    -4.7656    30.1469    60.6047 </r>
       <r>    -4.7109    32.9973    62.4083 </r>
       <r>    -4.6563    48.9183    65.0821 </r>
       <r>    -4.6016    54.2436    68.0470 </r>
       <r>    -4.5470    48.9784    70.7242 </r>
       <r>    -4.4923    46.2112    73.2501 </r>
       <r>    -4.4376    49.0287    75.9299 </r>
       <r>    -4.3830    55.8034    78.9801 </r>
       <r>    -4.3283    70.5340    82.8355 </r>
       <r>    -4.2737    81.6400    87.2979 </r>
       <r>    -4.2190    73.1729    91.2974 </r>
       <r>    -4.1643    54.1625    94.2579 </r>
       <r>    -4.1097    39.9507    96.4416 </r>
       <r>    -4.0550    39.0707    98.5772 </r>
       <r>    -4.0004    51.0636   101.3683 </r>
       <r>    -3.9457    60.2491   104.6615 </r>
       <r>    -3.8910    60.8341   107.9866 </r>
       <r>    -3.8364    65.8225   111.5844 </r>
       <r>    -3.7817    68.3704   115.3215 </r>
       <r>    -3.7271    62.0560   118.7135 </r>
       <r>    -3.6724    62.4477   122.1268 </r>
       <r>    -3.6177    65.9928   125.7339 </r>
       <r>    -3.5631    65.7323   129.3268 </r>
       <r>    -3.5084    75.9995   133.4809 </r>
       <r>    -3.4538    85.1466   138.1350 </r>
       <r>    -3.3991    72.0640   142.0740 </r>
       <r>    -3.3445    66.2162   145.6933 </r>
       <r>    -3.2898    85.5213   150.3678 </r>
       <r>    -3.2351    96.1369   155.6226 </r>
       <r>    -3.1805    88.0139   160.4334 </r>
       <r>    -3.1258    84.9651   165.0775 </r>
       <r>    -3.0712    88.0145   169.8884 </r>
       <r>    -3.0165    77.7814   174.1398 </r>
       <r>    -2.9618    47.5638   176.7397 </r>
       <r>    -2.9072    19.2549   177.7921 </r>
       <r>    -2.8525     8.5688   178.2605 </r>
       <r>    -2.7979     7.2368   178.6560 </r>
       <r>    -2.7432     8.8723   179.1410 </r>
       <r>    -2.6885     9.0773   179.6372 </r>
       <r>    -2.6339     6.6896   180.0028 </r>
       <r>    -2.5792     5.5652   180.3070 </r>
       <r>    -2.5246     6.8031   180.6789 </r>
       <r>    -2.4699     7.8668   181.1088 </r>
       <r>    -2.4152     6.8728   181.4845 </r>
       <r>    -2.3606     7.0710   181.8710 </r>
       <r>    -2.3059     9.7199   182.4023 </r>
       <r>    -2.2513    13.7516   183.1539 </r>
       <r>    -2.1966    16.7975   184.0721 </r>
       <r>    -2.1419    13.0101   184.7832 </r>
       <r>    -2.0873     4.7411   185.0424 </r>
       <r>    -2.0326    -0.1581   185.0337 </r>
       <r>    -1.9780    -0.7497   184.9927 </r>
       <r>    -1.9233     0.6367   185.0275 </r>
       <r>    -1.8686     3.1532   185.1999 </r>
       <r>    -1.8140     3.8783   185.4119 </r>
       <r>    -1.7593     1.5559   185.4969 </r>
       <r>    -1.7047    -0.5391   185.4675 </r>
       <r>    -1.6500     0.3576   185.4870 </r>
       <r>    -1.5954     6.0063   185.8153 </r>
       <r>    -1.5407    13.5223   186.5544 </r>
       <r>    -1.4860    15.0683   187.3780 </r>
       <r>    -1.4314     9.1283   187.8770 </r>
       <r>    -1.3767     5.3299   188.1683 </r>
       <r>    -1.3221     9.0636   188.6637 </r>
       <r>    -1.2674    10.8288   189.2556 </r>
       <r>    -1.2127     6.9881   189.6376 </r>
       <r>    -1.1581     4.3167   189.8735 </r>
       <r>    -1.1034     4.0010   190.0922 </r>
       <r>    -1.0488     4.2190   190.3228 </r>
       <r>    -0.9941     2.9054   190.4816 </r>
       <r>    -0.9394     0.6575   190.5176 </r>
       <r>    -0.8848    -0.3228   190.4999 </r>
       <r>    -0.8301    -0.5030   190.4724 </r>
       <r>    -0.7755     0.2586   190.4866 </r>
       <r>    -0.7208     3.8296   190.6959 </r>
       <r>    -0.6661     7.5104   191.1064 </r>
       <r>    -0.6115     7.1582   191.4977 </r>
       <r>    -0.5568     7.0755   191.8844 </r>
       <r>    -0.5022     7.4589   192.2921 </r>
       <r>    -0.4475     3.8034   192.5000 </r>
       <r>    -0.3928    -0.1030   192.4944 </r>
       <r>    -0.3382    -0.1137   192.4882 </r>
       <r>    -0.2835     4.4057   192.7290 </r>
       <r>    -0.2289     9.5935   193.2534 </r>
       <r>    -0.1742     9.0075   193.7457 </r>
       <r>    -0.1195     6.8787   194.1217 </r>
       <r>    -0.0649     9.8858   194.6620 </r>
       <r>    -0.0102    12.1593   195.3267 </r>
       <r>     0.0444    11.8249   195.9730 </r>
       <r>     0.0991    12.9309   196.6798 </r>
       <r>     0.1537    10.9307   197.2773 </r>
       <r>     0.2084     4.5016   197.5233 </r>
       <r>     0.2631    -0.1741   197.5138 </r>
       <r>     0.3177    -0.6592   197.4778 </r>
       <r>     0.3724     2.6021   197.6200 </r>
       <r>     0.4270     7.5786   198.0342 </r>
       <r>     0.4817     8.7692   198.5136 </r>
       <r>     0.5364     6.0642   198.8450 </r>
       <r>     0.5910     2.7633   198.9961 </r>
       <r>     0.6457     0.2798   199.0114 </r>
       <r>     0.7003    -0.6080   198.9781 </r>
       <r>     0.7550     0.4875   199.0048 </r>
       <r>     0.8097     4.3445   199.2422 </r>
       <r>     0.8643     7.3452   199.6437 </r>
       <r>     0.9190     5.8164   199.9616 </r>
       <r>     0.9736     5.5136   200.2630 </r>
       <r>     1.0283     7.4947   200.6727 </r>
       <r>     1.0830     5.9248   200.9965 </r>
       <r>     1.1376     4.4167   201.2379 </r>
       <r>     1.1923     5.6375   201.5461 </r>
       <r>     1.2469     6.3470   201.8930 </r>
       <r>     1.3016     7.3051   202.2923 </r>
       <r>     1.3563     7.8367   202.7206 </r>
       <r>     1.4109     6.4689   203.0742 </r>
       <r>     1.4656     7.1268   203.4638 </r>
       <r>     1.5202     6.7402   203.8322 </r>
       <r>     1.5749     2.7291   203.9814 </r>
       <r>     1.6296     3.4885   204.1720 </r>
       <r>     1.6842     9.9092   204.7137 </r>
       <r>     1.7389    10.3401   205.2789 </r>
       <r>     1.7935     4.2375   205.5105 </r>
       <r>     1.8482     3.7212   205.7139 </r>
       <r>     1.9028     9.7186   206.2451 </r>
       <r>     1.9575    14.2646   207.0248 </r>
       <r>     2.0122    12.6008   207.7135 </r>
       <r>     2.0668     5.6190   208.0207 </r>
       <r>     2.1215     0.1700   208.0299 </r>
       <r>     2.1761    -0.9425   207.9784 </r>
       <r>     2.2308     1.0744   208.0372 </r>
       <r>     2.2855     5.7470   208.3513 </r>
       <r>     2.3401     7.6187   208.7677 </r>
       <r>     2.3948     3.5024   208.9592 </r>
       <r>     2.4494     1.6546   209.0496 </r>
       <r>     2.5041     7.5115   209.4602 </r>
       <r>     2.5588    12.7465   210.1569 </r>
       <r>     2.6134    10.0204   210.7046 </r>
       <r>     2.6681     4.2819   210.9386 </r>
       <r>     2.7227     0.3908   210.9600 </r>
       <r>     2.7774     1.7187   211.0539 </r>
       <r>     2.8321     9.9050   211.5953 </r>
       <r>     2.8867    17.1386   212.5321 </r>
       <r>     2.9414    17.5285   213.4902 </r>
       <r>     2.9960    13.3029   214.2174 </r>
       <r>     3.0507     5.6760   214.5276 </r>
       <r>     3.1054    -0.0287   214.5260 </r>
       <r>     3.1600    -0.8052   214.4820 </r>
       <r>     3.2147     1.6854   214.5741 </r>
       <r>     3.2693     7.3145   214.9740 </r>
       <r>     3.3240    14.3104   215.7562 </r>
       <r>     3.3787    14.6271   216.5557 </r>
       <r>     3.4333     6.9053   216.9331 </r>
       <r>     3.4880     5.2122   217.2180 </r>
       <r>     3.5426    14.3073   218.0000 </r>
       <r>     3.5973    21.4579   219.1729 </r>
       <r>     3.6519    19.9848   220.2653 </r>
       <r>     3.7066    11.4784   220.8927 </r>
       <r>     3.7613     3.5742   221.0880 </r>
       <r>     3.8159     4.5158   221.3349 </r>
       <r>     3.8706     7.3828   221.7384 </r>
       <r>     3.9252     4.7272   221.9968 </r>
       <r>     3.9799     2.5860   222.1381 </r>
       <r>     4.0346     3.4155   222.3248 </r>
       <r>     4.0892     3.0883   222.4936 </r>
       <r>     4.1439     3.0777   222.6619 </r>
       <r>     4.1985     3.6123   222.8593 </r>
       <r>     4.2532     2.1234   222.9754 </r>
       <r>     4.3079     2.1370   223.0922 </r>
       <r>     4.3625     5.6690   223.4020 </r>
       <r>     4.4172     7.1055   223.7904 </r>
       <r>     4.4718     3.8168   223.9990 </r>
       <r>     4.5265     0.4898   224.0258 </r>
       <r>     4.5812    -0.3160   224.0085 </r>
       <r>     4.6358    -0.1340   224.0012 </r>
       <r>     4.6905    -0.0207   224.0001 </r>
       <r>     4.7451    -0.0015   224.0000 </r>
       <r>     4.7998    -0.0001   224.0000 </r>
       <r>     4.8545    -0.0000   224.0000 </r>
       <r>     4.9091    -0.0000   224.0000 </r>
       <r>     4.9638    -0.0000   224.0000 </r>
       <r>     5.0184    -0.0000   224.0000 </r>
       <r>     5.0731     0.0000   224.0000 </r>
       <r>     5.1278     0.0000   224.0000 </r>
       <r>     5.1824     0.0000   224.0000 </r>
       <r>     5.2371     0.0000   224.0000 </r>
       <r>     5.2917     0.0000   224.0000 </r>
       <r>     5.3464     0.0000   224.0000 </r>
       <r>     5.4010     0.0000   224.0000 </r>
      </set>
     </set>
    </array>
   </total>
  </dos>
 </calculation>
 <structure name="finalpos" >
  <crystal>
   <varray name="basis" >
    <v>       5.14773737       0.00000000       0.00000000 </v>
    <v>       0.00000000       5.14773737       0.00000000 </v>
    <v>       0.00000000       0.00000000      35.26000000 </v>
   </varray>
   <i name="volume">    934.36179200 </i>
   <varray name="rec_basis" >
    <v>       0.19426010       0.00000000       0.00000000 </v>
    <v>       0.00000000       0.19426010       0.00000000 </v>
    <v>       0.00000000       0.00000000       0.02836075 </v>
   </varray>
  </crystal>
  <varray name="positions" >
   <v>       0.25000000       0.25000000       0.99705048 </v>
   <v>       0.75000000       0.25000000       0.99705048 </v>
   <v>       0.25000000       0.75000000       0.99705048 </v>
   <v>       0.75000000       0.75000000       0.99705048 </v>
   <v>       0.00000000       0.00000000       0.04866704 </v>
   <v>       0.50000000       0.00000000       0.04866704 </v>
   <v>       0.00000000       0.50000000       0.04866704 </v>
   <v>       0.50000000       0.50000000       0.04866704 </v>
   <v>       0.25001835       0.24096751       0.10014051 </v>
   <v>       0.75002073       0.23962901       0.10080118 </v>
   <v>       0.25001715       0.74575999       0.09966069 </v>
   <v>       0.75001949       0.74583105       0.10016235 </v>
   <v>       1.00250018      -0.01435339       0.15209540 </v>
   <v>       0.49756272      -0.01435565       0.15209473 </v>
   <v>       0.99545322       0.48539219       0.14956104 </v>
   <v>       0.50460812       0.48538598       0.14955964 </v>
   <v>       0.25005354       0.67097153       0.20550509 </v>
  </varray>
  <varray name="selective"  type="logical" >
   <v type="logical" >  F  F  F </v>
   <v type="logical" >  F  F  F </v>
   <v type="logical" >  F  F  F </v>
   <v type="logical" >  F  F  F </v>
   <v type="logical" >  F  F  F </v>
   <v type="logical" >  F  F  F </v>
   <v type="logical" >  F  F  F </v>
   <v type="logical" >  F  F  F </v>
   <v type="logical" >  T  T  T </v>
   <v type="logical" >  T  T  T </v>
   <v type="logical" >  T  T  T </v>
   <v type="logical" >  T  T  T </v>
   <v type="logical" >  T  T  T </v>
   <v type="logical" >  T  T  T </v>
   <v type="logical" >  T  T  T </v>
   <v type="logical" >  T  T  T </v>
   <v type="logical" >  T  T  T </v>
  </varray>
  <nose>
   <v>      -3.00000000       0.00000000       0.00010000       0.00010000 </v>
  </nose>
 </structure>
</modeling>
T  T </v>
   <v type="logical" >  T  T  T </v>
   <v type="logical" >  T  T  T </v>
   <v type="logical" >  T  T  T </v>
   <v type="logical" >  T  T  T </v>
   <v type="logical" >  T  T  T </v>
  </varray>
  <nose>
   <v>      -3.00000000       0.00000000       0.00010000       0.00010000 </v>
  </nose>
 </structure>
</modeling>
 </structure>
</modeling>
