 vasp.6.1.0 28Jan20 (build May 12 2023 01:18:31) complex                        
  
 executed on             LinuxIFC date 2023.06.16  12:33:54
 running on    4 total cores
 distrk:  each k-point on    4 cores,    1 groups
 distr:  one band on NCORE=   1 cores,    4 groups


--------------------------------------------------------------------------------------------------------


 INCAR:
 POTCAR:    PAW_PBE Cu 22Jun2005                  
 POTCAR:    PAW_PBE Cu 22Jun2005                  
   VRHFIN =Cu: d10 p1                                                                               
   LEXCH  = PE                                                                                      
   EATOM  =  1390.9808 eV,  102.2342 Ry                                                             
                                                                                                    
   TITEL  = PAW_PBE Cu 22Jun2005                                                                    
   LULTRA =        F    use ultrasoft PP ?                                                          
   IUNSCR =        1    unscreen: 0-lin 1-nonlin 2-no                                               
   RPACOR =    2.000    partial core radius                                                         
   POMASS =   63.546; ZVAL   =   11.000    mass and valenz                                          
   RCORE  =    2.300    outmost cutoff radius                                                       
   RWIGS  =    2.200; RWIGS  =    1.164    wigner-seitz radius (au A)                               
   ENMAX  =  295.446; ENMIN  =  221.585 eV                                                          
   ICORE  =        3    local potential                                                             
   LCOR   =        T    correct aug charges                                                         
   LPAW   =        T    paw PP                                                                      
   EAUG   =  586.980                                                                                
   DEXC   =    0.000                                                                                
   RMAX   =    2.344    core radius for proj-oper                                                   
   RAUG   =    1.300    factor for augmentation sphere                                              
   RDEP   =    2.302    radius for radial grids                                                     
   RDEPT  =    1.771    core radius for aug-charge                                                  
                                                                                                    
   Atomic configuration                                                                             
    9 entries                                                                                       
     n  l   j            E        occ.                                                              
     1  0  0.50     -8850.2468   2.0000                                                             
     2  0  0.50     -1062.3498   2.0000                                                             
     2  1  1.50      -916.8226   6.0000                                                             
     3  0  0.50      -114.6929   2.0000                                                             
     3  1  1.50       -72.1325   6.0000                                                             
     3  2  2.50        -5.0394  10.0000                                                             
     4  0  0.50        -4.6097   1.0000                                                             
     4  1  0.50        -4.0817   0.0000                                                             
     4  3  2.50        -1.3606   0.0000                                                             
   Description                                                                                      
     l       E           TYP  RCUT    TYP  RCUT                                                     
     2     -5.0393973     23  2.200                                                                 
     2     10.8846608     23  2.200                                                                 
     0     -4.6097109     23  2.200                                                                 
     0      8.2520465     23  2.200                                                                 
     1     -2.7211652     23  2.200                                                                 
     1     21.7055443     23  2.200                                                                 
     3      2.7211652     23  2.300                                                                 
  local pseudopotential read in
  partial core-charges read in
  partial kinetic energy density read in
  atomic valenz-charges read in
  non local Contribution for L=           2  read in
    real space projection operators read in
  non local Contribution for L=           2  read in
    real space projection operators read in
  non local Contribution for L=           0  read in
    real space projection operators read in
  non local Contribution for L=           0  read in
    real space projection operators read in
  non local Contribution for L=           1  read in
    real space projection operators read in
  non local Contribution for L=           1  read in
    real space projection operators read in
    PAW grid and wavefunctions read in
 
   number of l-projection  operators is LMAX  =           6
   number of lm-projection operators is LMMAX =          18
 
  PAW_PBE Cu 22Jun2005                  :
 energy of atom  1       EATOM=-1390.9808
 kinetic energy error for atom=    0.0292 (will be added to EATOM!!)
 
 
 POSCAR: Cu
  positions in direct lattice
  No initial velocities read in
 exchange correlation table for  LEXCH =        8
   RHO(1)=    0.500       N(1)  =     2000
   RHO(2)=  100.500       N(2)  =     4000

 VTST: version 4.0, (05/15/20)

 CHAIN: initializing optimizer
 
 OPT: Using VASP Conjugate-Gradient optimizer
 CHAIN: Read ICHAIN            0
 
 POSCAR: Cu
  positions in direct lattice
  No initial velocities read in
 


--------------------------------------------------------------------------------------------------------


 ion  position               nearest neighbor table
   1  0.250  0.250  0.004-   2 2.57   3 2.57   3 2.57   2 2.57   7 2.57   8 2.57   5 2.57   6 2.57

   2  0.750  0.250  0.004-   1 2.57   4 2.57   4 2.57   1 2.57   7 2.57   8 2.57   5 2.57   6 2.57

   3  0.250  0.750  0.004-   1 2.57   4 2.57   1 2.57   4 2.57   7 2.57   8 2.57   5 2.57   6 2.57

   4  0.750  0.750  0.004-   2 2.57   3 2.57   2 2.57   3 2.57   7 2.57   8 2.57   5 2.57   6 2.57

   5  0.000  0.000  0.068-   6 2.57   7 2.57   7 2.57   6 2.57   1 2.57   2 2.57   9 2.57  10 2.57
                            11 2.57  12 2.57   3 2.57   4 2.57
   6  0.500  0.000  0.068-   5 2.57   8 2.57   8 2.57   5 2.57   1 2.57   2 2.57   9 2.57  10 2.57
                            11 2.57  12 2.57   3 2.57   4 2.57
   7  0.000  0.500  0.068-   5 2.57   8 2.57   5 2.57   8 2.57   1 2.57   2 2.57   9 2.57  10 2.57
                            11 2.57  12 2.57   3 2.57   4 2.57
   8  0.500  0.500  0.068-   6 2.57   7 2.57   6 2.57   7 2.57   1 2.57   2 2.57   9 2.57  10 2.57
                            11 2.57  12 2.57   3 2.57   4 2.57
   9  0.250  0.250  0.132-  13 2.57  14 2.57  15 2.57  16 2.57  10 2.57  11 2.57  11 2.57  10 2.57
                             5 2.57   6 2.57   7 2.57   8 2.57
  10  0.750  0.250  0.132-  13 2.57  14 2.57  15 2.57  16 2.57   9 2.57  12 2.57  12 2.57   9 2.57
                             5 2.57   6 2.57   7 2.57   8 2.57
  11  0.250  0.750  0.132-  13 2.57  14 2.57  15 2.57  16 2.57   9 2.57  12 2.57   9 2.57  12 2.57
                             5 2.57   6 2.57   7 2.57   8 2.57
  12  0.750  0.750  0.132-  13 2.57  14 2.57  15 2.57  16 2.57  10 2.57  11 2.57  10 2.57  11 2.57
                             5 2.57   6 2.57   7 2.57   8 2.57
  13  0.000  0.000  0.196-   9 2.57  10 2.57  11 2.57  12 2.57  14 2.57  15 2.57  15 2.57  14 2.57

  14  0.500  0.000  0.196-   9 2.57  10 2.57  11 2.57  12 2.57  13 2.57  16 2.57  16 2.57  13 2.57

  15  0.000  0.500  0.196-   9 2.57  10 2.57  11 2.57  12 2.57  13 2.57  16 2.57  13 2.57  16 2.57

  16  0.500  0.500  0.196-   9 2.57  10 2.57  11 2.57  12 2.57  14 2.57  15 2.57  14 2.57  15 2.57

 
  LATTYP: Found a simple tetragonal cell.
 ALAT       =     5.1477373670
 C/A-ratio  =     5.5286425804
  
  Lattice vectors:
  
 A1 = (   5.1477373670,   0.0000000000,   0.0000000000)
 A2 = (   0.0000000000,   5.1477373670,   0.0000000000)
 A3 = (   0.0000000000,   0.0000000000,  28.4600000000)


Analysis of symmetry for initial positions (statically):
=====================================================================
 Subroutine PRICEL returns following result:
 
  LATTYP: Found a simple tetragonal cell.
 ALAT       =     2.5738686835
 C/A-ratio  =    11.0572851608
  
  Lattice vectors:
  
 A1 = (   2.5738686835,   0.0000000000,   0.0000000000)
 A2 = (   0.0000000000,   2.5738686835,   0.0000000000)
 A3 = (   0.0000000000,   0.0000000000,  28.4600000000)
 
   4 primitive cells build up your supercell.
 

 Routine SETGRP: Setting up the symmetry group for a 
 simple tetragonal supercell.


 Subroutine GETGRP returns: Found 16 space group operations
 (whereof  8 operations were pure point group operations)
 out of a pool of 16 trial point group operations.


The static configuration has the point symmetry C_4v.
 The point group associated with its full space group is D_4h.


Analysis of symmetry for dynamics (positions and initial velocities):
=====================================================================
 Subroutine PRICEL returns following result:
 
  LATTYP: Found a simple tetragonal cell.
 ALAT       =     2.5738686835
 C/A-ratio  =    11.0572851608
  
  Lattice vectors:
  
 A1 = (   2.5738686835,   0.0000000000,   0.0000000000)
 A2 = (   0.0000000000,   2.5738686835,   0.0000000000)
 A3 = (   0.0000000000,   0.0000000000,  28.4600000000)
 
   4 primitive cells build up your supercell.
 

 Routine SETGRP: Setting up the symmetry group for a 
 simple tetragonal supercell.


 Subroutine GETGRP returns: Found 16 space group operations
 (whereof  8 operations were pure point group operations)
 out of a pool of 16 trial point group operations.


The dynamic configuration has the point symmetry C_4v.
 The point group associated with its full space group is D_4h.


Analysis of constrained symmetry for selective dynamics:
=====================================================================
 Subroutine PRICEL returns following result:
 
  LATTYP: Found a simple tetragonal cell.
 ALAT       =     2.5738686835
 C/A-ratio  =    11.0572851608
  
  Lattice vectors:
  
 A1 = (   2.5738686835,   0.0000000000,   0.0000000000)
 A2 = (   0.0000000000,   2.5738686835,   0.0000000000)
 A3 = (   0.0000000000,   0.0000000000,  28.4600000000)
 
   4 primitive cells build up your supercell.
 

 Routine SETGRP: Setting up the symmetry group for a 
 simple tetragonal supercell.


 Subroutine GETGRP returns: Found  8 space group operations
 (whereof  8 operations were pure point group operations)
 out of a pool of 16 trial point group operations.


The constrained configuration has the point symmetry C_4v.


 Subroutine INISYM returns: Found  8 space group operations
 (whereof  8 operations are pure point group operations),
 and found     4 'primitive' translations


----------------------------------------------------------------------------------------

                                     Primitive cell                                     

  volume of cell :     188.5418

  direct lattice vectors                    reciprocal lattice vectors
     2.573868684  0.000000000  0.000000000     0.388520209  0.000000000  0.000000000
     0.000000000  2.573868684  0.000000000     0.000000000  0.388520209  0.000000000
     0.000000000  0.000000000 28.460000000     0.000000000  0.000000000  0.035137034

  length of vectors
     2.573868684  2.573868684 28.460000000     0.388520209  0.388520209  0.035137034

  position of ions in fractional coordinates (direct lattice)
     0.500000000  0.500000000  0.004075896
     0.000000000  0.000000000  0.068025299
     0.500000000  0.500000000  0.131974701
     0.000000000  0.000000000  0.195924104

  ion indices of the primitive-cell ions
   primitive index   ion index
                 1           1
                 2           5
                 3           9
                 4          13

----------------------------------------------------------------------------------------

 
 
 KPOINTS: K-Points                                

Automatic generation of k-mesh.
Space group operators:
 irot       det(A)        alpha          n_x          n_y          n_z        tau_x        tau_y        tau_z
    1     1.000000     0.000000     1.000000     0.000000     0.000000     0.000000     0.000000     0.000000
    2     1.000000    90.000000     0.000000     0.000000    -1.000000     0.000000     0.000000     0.000000
    3     1.000000   180.000000     0.000000     0.000000     1.000000     0.000000     0.000000     0.000000
    4     1.000000    90.000000     0.000000     0.000000     1.000000     0.000000     0.000000     0.000000
    5    -1.000000   180.000000     0.000000     1.000000     0.000000     0.000000     0.000000     0.000000
    6    -1.000000   180.000000     0.707107     0.707107     0.000000     0.000000     0.000000     0.000000
    7    -1.000000   180.000000     1.000000     0.000000     0.000000     0.000000     0.000000     0.000000
    8    -1.000000   180.000000     0.707107    -0.707107     0.000000     0.000000     0.000000     0.000000
 
 Subroutine IBZKPT returns following result:
 ===========================================
 
 Found     21 irreducible k-points:
 
 Following reciprocal coordinates:
            Coordinates               Weight
  0.041667  0.041667  0.000000      4.000000
  0.125000  0.041667  0.000000      8.000000
  0.208333  0.041667  0.000000      8.000000
  0.291667  0.041667  0.000000      8.000000
  0.375000  0.041667  0.000000      8.000000
  0.458333  0.041667  0.000000      8.000000
  0.125000  0.125000  0.000000      4.000000
  0.208333  0.125000  0.000000      8.000000
  0.291667  0.125000  0.000000      8.000000
  0.375000  0.125000  0.000000      8.000000
  0.458333  0.125000  0.000000      8.000000
  0.208333  0.208333  0.000000      4.000000
  0.291667  0.208333  0.000000      8.000000
  0.375000  0.208333  0.000000      8.000000
  0.458333  0.208333  0.000000      8.000000
  0.291667  0.291667  0.000000      4.000000
  0.375000  0.291667  0.000000      8.000000
  0.458333  0.291667  0.000000      8.000000
  0.375000  0.375000  0.000000      4.000000
  0.458333  0.375000  0.000000      8.000000
  0.458333  0.458333  0.000000      4.000000
 
 Following cartesian coordinates:
            Coordinates               Weight
  0.008094  0.008094  0.000000      4.000000
  0.024283  0.008094  0.000000      8.000000
  0.040471  0.008094  0.000000      8.000000
  0.056659  0.008094  0.000000      8.000000
  0.072848  0.008094  0.000000      8.000000
  0.089036  0.008094  0.000000      8.000000
  0.024283  0.024283  0.000000      4.000000
  0.040471  0.024283  0.000000      8.000000
  0.056659  0.024283  0.000000      8.000000
  0.072848  0.024283  0.000000      8.000000
  0.089036  0.024283  0.000000      8.000000
  0.040471  0.040471  0.000000      4.000000
  0.056659  0.040471  0.000000      8.000000
  0.072848  0.040471  0.000000      8.000000
  0.089036  0.040471  0.000000      8.000000
  0.056659  0.056659  0.000000      4.000000
  0.072848  0.056659  0.000000      8.000000
  0.089036  0.056659  0.000000      8.000000
  0.072848  0.072848  0.000000      4.000000
  0.089036  0.072848  0.000000      8.000000
  0.089036  0.089036  0.000000      4.000000
 


--------------------------------------------------------------------------------------------------------




 Dimension of arrays:
   k-points           NKPTS =     21   k-points in BZ     NKDIM =     21   number of bands    NBANDS=    108
   number of dos      NEDOS =    301   number of ions     NIONS =     16
   non local maximal  LDIM  =      6   non local SUM 2l+1 LMDIM =     18
   total plane-waves  NPLWV = 248832
   max r-space proj   IRMAX =      1   max aug-charges    IRDMAX=  76647
   dimension x,y,z NGX =    36 NGY =   36 NGZ =  192
   dimension x,y,z NGXF=    72 NGYF=   72 NGZF=  384
   support grid    NGXF=   144 NGYF=  144 NGZF=  768
   ions per type =              16
   NGX,Y,Z   is equivalent  to a cutoff of  11.63, 11.63, 11.22 a.u.
   NGXF,Y,Z  is equivalent  to a cutoff of  23.25, 23.25, 22.43 a.u.

 SYSTEM =  unknown system                          
 POSCAR =  Cu                                      

 Startparameter for this run:
   NWRITE =      2    write-flag & timer
   PREC   = accura    normal or accurate (medium, high low for compatibility)
   ISTART =      0    job   : 0-new  1-cont  2-samecut
   ICHARG =      2    charge: 1-file 2-atom 10-const
   ISPIN  =      1    spin polarized calculation?
   LNONCOLLINEAR =      F non collinear calculations
   LSORBIT =      F    spin-orbit coupling
   INIWAV =      1    electr: 0-lowe 1-rand  2-diag
   LASPH  =      F    aspherical Exc in radial PAW
   METAGGA=      F    non-selfconsistent MetaGGA calc.

 Electronic Relaxation 1
   ENCUT  =  380.0 eV  27.93 Ry    5.28 a.u.   8.18  8.18 45.24*2*pi/ulx,y,z
   ENINI  =  380.0     initial cutoff
   ENAUG  =  587.0 eV  augmentation charge cutoff
   NELM   =    400;   NELMIN=  2; NELMDL= -5     # of ELM steps 
   EDIFF  = 0.1E-06   stopping-criterion for ELM
   LREAL  =      F    real-space projection
   NLSPLINE    = F    spline interpolate recip. space projectors
   LCOMPAT=      F    compatible to vasp.4.4
   GGA_COMPAT  = T    GGA compatible to vasp.4.4-vasp.4.6
   LMAXPAW     = -100 max onsite density
   LMAXMIX     =    2 max onsite mixed and CHGCAR
   VOSKOWN=      0    Vosko Wilk Nusair interpolation
   ROPT   =    0.00000
 Ionic relaxation
   EDIFFG = -.2E-02   stopping-criterion for IOM
   NSW    =    300    number of steps for IOM
   NBLOCK =      1;   KBLOCK =    300    inner block; outer block 
   IBRION =      2    ionic relax: 0-MD 1-quasi-New 2-CG
   NFREE  =      1    steps in history (QN), initial steepest desc. (CG)
   ISIF   =      2    stress and relaxation
   IWAVPR =     11    prediction:  0-non 1-charg 2-wave 3-comb
   ISYM   =      2    0-nonsym 1-usesym 2-fastsym
   LCORR  =      T    Harris-Foulkes like correction to forces

   POTIM  = 0.5000    time-step for ionic-motion
   TEIN   =    0.0    initial temperature
   TEBEG  =    0.0;   TEEND  =   0.0 temperature during run
   SMASS  =  -3.00    Nose mass-parameter (am)
   estimated Nose-frequenzy (Omega)   =  0.10E-29 period in steps = 0.13E+47 mass=  -0.606E-27a.u.
   SCALEE = 1.0000    scale energy and forces
   NPACO  =    256;   APACO  = 16.0  distance and # of slots for P.C.
   PSTRESS=    0.0 pullay stress

  Mass of Ions in am
   POMASS =  63.55
  Ionic Valenz
   ZVAL   =  11.00
  Atomic Wigner-Seitz radii
   RWIGS  =  -1.00
  virtual crystal weights 
   VCA    =   1.00
   NELECT =     176.0000    total number of electrons
   NUPDOWN=      -1.0000    fix difference up-down

 DOS related values:
   EMIN   =  10.00;   EMAX   =-10.00  energy-range for DOS
   EFERMI =   0.00
   ISMEAR =     1;   SIGMA  =   0.10  broadening in eV -4-tet -1-fermi 0-gaus

 Electronic relaxation 2 (details)
   IALGO  =     38    algorithm
   LDIAG  =      T    sub-space diagonalisation (order eigenvalues)
   LSUBROT=      F    optimize rotation matrix (better conditioning)
   TURBO    =      0    0=normal 1=particle mesh
   IRESTART =      0    0=no restart 2=restart with 2 vectors
   NREBOOT  =      0    no. of reboots
   NMIN     =      0    reboot dimension
   EREF     =   0.00    reference energy to select bands
   IMIX   =      4    mixing-type and parameters
     AMIX     =   0.40;   BMIX     =  1.00
     AMIX_MAG =   1.60;   BMIX_MAG =  1.00
     AMIN     =   0.10
     WC   =   100.;   INIMIX=   1;  MIXPRE=   1;  MAXMIX= -45

 Intra band minimization:
   WEIMIN = 0.0010     energy-eigenvalue tresh-hold
   EBREAK =  0.23E-09  absolut break condition
   DEPER  =   0.30     relativ break condition  

   TIME   =   0.40     timestep for ELM

  volume/ion in A,a.u.               =      47.14       318.09
  Fermi-wavevector in a.u.,A,eV,Ry     =   1.007913  1.904680 13.822011  1.015889
  Thomas-Fermi vector in A             =   2.140748
 
 Write flags
   LWAVE        =      F    write WAVECAR
   LDOWNSAMPLE  =      F    k-point downsampling of WAVECAR
   LCHARG       =      F    write CHGCAR
   LVTOT        =      F    write LOCPOT, total local potential
   LVHAR        =      F    write LOCPOT, Hartree potential only
   LELF         =      F    write electronic localiz. function (ELF)
   LORBIT       =      0    0 simple, 1 ext, 2 COOP (PROOUT), +10 PAW based schemes


 Dipole corrections
   LMONO  =      F    monopole corrections only (constant potential shift)
   LDIPOL =      F    correct potential (dipole corrections)
   IDIPOL =      0    1-x, 2-y, 3-z, 4-all directions 
   EPSILON=  1.0000000 bulk dielectric constant

 Exchange correlation treatment:
   GGA     =    --    GGA type
   LEXCH   =     8    internal setting for exchange type
   VOSKOWN=      0    Vosko Wilk Nusair interpolation
   LHFCALC =     F    Hartree Fock is set to
   LHFONE  =     F    Hartree Fock one center treatment
   AEXX    =    0.0000 exact exchange contribution

 Linear response parameters
   LEPSILON=     F    determine dielectric tensor
   LRPA    =     F    only Hartree local field effects (RPA)
   LNABLA  =     F    use nabla operator in PAW spheres
   LVEL    =     F    velocity operator in full k-point grid
   LINTERFAST=   F  fast interpolation
   KINTER  =     0    interpolate to denser k-point grid
   CSHIFT  =0.1000    complex shift for real part using Kramers Kronig
   OMEGAMAX=  -1.0    maximum frequency
   DEG_THRESHOLD= 0.2000000E-02 threshold for treating states as degnerate
   RTIME   =   -0.100 relaxation time in fs
  (WPLASMAI=    0.000 imaginary part of plasma frequency in eV, 0.658/RTIME)
   DFIELD  = 0.0000000 0.0000000 0.0000000 field for delta impulse in time
 
 Orbital magnetization related:
   ORBITALMAG=     F  switch on orbital magnetization
   LCHIMAG   =     F  perturbation theory with respect to B field
   DQ        =  0.001000  dq finite difference perturbation B field
   LLRAUG    =     F  two centre corrections for induced B field



--------------------------------------------------------------------------------------------------------


 conjugate gradient relaxation of ions
   using selective dynamics as specified on POSCAR
 charge density and potential will be updated during run
 non-spin polarized calculation
 Variant of blocked Davidson
 Davidson routine will perform the subspace rotation
 perform sub-space diagonalisation
    after iterative eigenvector-optimisation
 modified Broyden-mixing scheme, WC =      100.0
 initial mixing is a Kerker type mixing with AMIX =  0.4000 and BMIX =      1.0000
 Hartree-type preconditioning will be used
 using additional bands           20
 reciprocal scheme for non local part
 use partial core corrections
 calculate Harris-corrections to forces 
   (improved forces if not selfconsistent)
 use gradient corrections 
 use of overlap-Matrix (Vanderbilt PP)
 Methfessel and Paxton  Order N= 1 SIGMA  =   0.10


--------------------------------------------------------------------------------------------------------


  energy-cutoff  :      380.00
  volume of cell :      754.17
      direct lattice vectors                 reciprocal lattice vectors
     5.147737367  0.000000000  0.000000000     0.194260105  0.000000000  0.000000000
     0.000000000  5.147737367  0.000000000     0.000000000  0.194260105  0.000000000
     0.000000000  0.000000000 28.460000000     0.000000000  0.000000000  0.035137034

  length of vectors
     5.147737367  5.147737367 28.460000000     0.194260105  0.194260105  0.035137034


 
 k-points in units of 2pi/SCALE and weight: K-Points                                
   0.00809417  0.00809417  0.00000000       0.028
   0.02428251  0.00809417  0.00000000       0.056
   0.04047086  0.00809417  0.00000000       0.056
   0.05665920  0.00809417  0.00000000       0.056
   0.07284754  0.00809417  0.00000000       0.056
   0.08903588  0.00809417  0.00000000       0.056
   0.02428251  0.02428251  0.00000000       0.028
   0.04047086  0.02428251  0.00000000       0.056
   0.05665920  0.02428251  0.00000000       0.056
   0.07284754  0.02428251  0.00000000       0.056
   0.08903588  0.02428251  0.00000000       0.056
   0.04047086  0.04047086  0.00000000       0.028
   0.05665920  0.04047086  0.00000000       0.056
   0.07284754  0.04047086  0.00000000       0.056
   0.08903588  0.04047086  0.00000000       0.056
   0.05665920  0.05665920  0.00000000       0.028
   0.07284754  0.05665920  0.00000000       0.056
   0.08903588  0.05665920  0.00000000       0.056
   0.07284754  0.07284754  0.00000000       0.028
   0.08903588  0.07284754  0.00000000       0.056
   0.08903588  0.08903588  0.00000000       0.028
 
 k-points in reciprocal lattice and weights: K-Points                                
   0.04166667  0.04166667  0.00000000       0.028
   0.12500000  0.04166667  0.00000000       0.056
   0.20833333  0.04166667  0.00000000       0.056
   0.29166667  0.04166667  0.00000000       0.056
   0.37500000  0.04166667  0.00000000       0.056
   0.45833333  0.04166667  0.00000000       0.056
   0.12500000  0.12500000  0.00000000       0.028
   0.20833333  0.12500000  0.00000000       0.056
   0.29166667  0.12500000  0.00000000       0.056
   0.37500000  0.12500000  0.00000000       0.056
   0.45833333  0.12500000  0.00000000       0.056
   0.20833333  0.20833333  0.00000000       0.028
   0.29166667  0.20833333  0.00000000       0.056
   0.37500000  0.20833333  0.00000000       0.056
   0.45833333  0.20833333  0.00000000       0.056
   0.29166667  0.29166667  0.00000000       0.028
   0.37500000  0.29166667  0.00000000       0.056
   0.45833333  0.29166667  0.00000000       0.056
   0.37500000  0.37500000  0.00000000       0.028
   0.45833333  0.37500000  0.00000000       0.056
   0.45833333  0.45833333  0.00000000       0.028
 
 position of ions in fractional coordinates (direct lattice) 
   0.25000000  0.25000000  0.00407590
   0.75000000  0.25000000  0.00407590
   0.25000000  0.75000000  0.00407590
   0.75000000  0.75000000  0.00407590
   0.00000000  0.00000000  0.06802530
   0.50000000  0.00000000  0.06802530
   0.00000000  0.50000000  0.06802530
   0.50000000  0.50000000  0.06802530
   0.25000000  0.25000000  0.13197470
   0.75000000  0.25000000  0.13197470
   0.25000000  0.75000000  0.13197470
   0.75000000  0.75000000  0.13197470
   0.00000000  0.00000000  0.19592410
   0.50000000  0.00000000  0.19592410
   0.00000000  0.50000000  0.19592410
   0.50000000  0.50000000  0.19592410
 
 position of ions in cartesian coordinates  (Angst):
   1.28693434  1.28693434  0.11600000
   3.86080303  1.28693434  0.11600000
   1.28693434  3.86080303  0.11600000
   3.86080303  3.86080303  0.11600000
   0.00000000  0.00000000  1.93600000
   2.57386868  0.00000000  1.93600000
   0.00000000  2.57386868  1.93600000
   2.57386868  2.57386868  1.93600000
   1.28693434  1.28693434  3.75600000
   3.86080303  1.28693434  3.75600000
   1.28693434  3.86080303  3.75600000
   3.86080303  3.86080303  3.75600000
   0.00000000  0.00000000  5.57600000
   2.57386868  0.00000000  5.57600000
   0.00000000  2.57386868  5.57600000
   2.57386868  2.57386868  5.57600000
 


--------------------------------------------------------------------------------------------------------


 k-point   1 :   0.0417 0.0417 0.0000  plane waves:   12697
 k-point   2 :   0.1250 0.0417 0.0000  plane waves:   12682
 k-point   3 :   0.2083 0.0417 0.0000  plane waves:   12682
 k-point   4 :   0.2917 0.0417 0.0000  plane waves:   12670
 k-point   5 :   0.3750 0.0417 0.0000  plane waves:   12660
 k-point   6 :   0.4583 0.0417 0.0000  plane waves:   12665
 k-point   7 :   0.1250 0.1250 0.0000  plane waves:   12685
 k-point   8 :   0.2083 0.1250 0.0000  plane waves:   12668
 k-point   9 :   0.2917 0.1250 0.0000  plane waves:   12677
 k-point  10 :   0.3750 0.1250 0.0000  plane waves:   12677
 k-point  11 :   0.4583 0.1250 0.0000  plane waves:   12670
 k-point  12 :   0.2083 0.2083 0.0000  plane waves:   12665
 k-point  13 :   0.2917 0.2083 0.0000  plane waves:   12675
 k-point  14 :   0.3750 0.2083 0.0000  plane waves:   12677
 k-point  15 :   0.4583 0.2083 0.0000  plane waves:   12678
 k-point  16 :   0.2917 0.2917 0.0000  plane waves:   12686
 k-point  17 :   0.3750 0.2917 0.0000  plane waves:   12725
 k-point  18 :   0.4583 0.2917 0.0000  plane waves:   12711
 k-point  19 :   0.3750 0.3750 0.0000  plane waves:   12748
 k-point  20 :   0.4583 0.3750 0.0000  plane waves:   12732
 k-point  21 :   0.4583 0.4583 0.0000  plane waves:   12722

 maximum and minimum number of plane-waves per node :     12748    12660

 maximum number of plane-waves:     12748
 maximum index in each direction: 
   IXMAX=    8   IYMAX=    8   IZMAX=   45
   IXMIN=   -8   IYMIN=   -8   IZMIN=  -45


 serial   3D FFT for wavefunctions
 parallel 3D FFT for charge:
    minimum data exchange during FFTs selected (reduces bandwidth)


 total amount of memory used by VASP MPI-rank0   297893. kBytes
=======================================================================

   base      :      30000. kBytes
   nonl-proj :      41813. kBytes
   fftplans  :      73626. kBytes
   grid      :      33944. kBytes
   one-center:        248. kBytes
   wavefun   :     118262. kBytes
 
     INWAV:  cpu time    0.0001: real time    0.0002
 Broyden mixing: mesh for mixing (old mesh)
   NGX = 17   NGY = 17   NGZ = 91
  (NGX  = 72   NGY  = 72   NGZ  =384)
  gives a total of  26299 points

 initial charge density was supplied:
 charge density of overlapping atoms calculated
 number of electron     176.0000000 magnetization 
 keeping initial charge density in first step


--------------------------------------------------------------------------------------------------------


 Maximum index for augmentation-charges        18611 (set IRDMAX)


--------------------------------------------------------------------------------------------------------


 First call to EWALD:  gamma=   0.195
 Maximum number of real-space cells 4x 4x 1
 Maximum number of reciprocal cells 2x 2x 8

    FEWALD:  cpu time    0.0017: real time    0.0098


--------------------------------------- Iteration      1(   1)  ---------------------------------------


    POTLOK:  cpu time    0.2388: real time    0.3409
    SETDIJ:  cpu time    0.1670: real time    0.2570
     EDDAV:  cpu time   22.1124: real time   22.5949
       DOS:  cpu time    0.0026: real time    0.1000
    --------------------------------------------
      LOOP:  cpu time   22.5208: real time   23.2929

 eigenvalue-minimisations  :  4536
 total energy-change (2. order) : 0.1430491E+04  (-0.6061173E+04)
 number of electron     176.0000000 magnetization 
 augmentation part      176.0000000 magnetization 

 Free energy of the ion-electron system (eV)
  ---------------------------------------------------
  alpha Z        PSCENC =       248.24729785
  Ewald energy   TEWEN  =    124456.75212892
  -Hartree energ DENC   =   -145454.25815618
  -exchange      EXHF   =         0.00000000
  -V(xc)+E(xc)   XCENC  =       726.81926039
  PAW double counting   =     19651.30655805   -21344.77547402
  entropy T*S    EENTRO =        -0.00109207
  eigenvalues    EBANDS =       891.17499515
  atomic energy  EATOM  =     22255.22547210
  Solvation  Ediel_sol  =         0.00000000
  ---------------------------------------------------
  free energy    TOTEN  =      1430.49099020 eV

  energy without entropy =     1430.49208227  energy(sigma->0) =     1430.49135422


--------------------------------------------------------------------------------------------------------




--------------------------------------- Iteration      1(   2)  ---------------------------------------


     EDDAV:  cpu time   22.0329: real time   22.0444
       DOS:  cpu time    0.0020: real time    0.0020
    --------------------------------------------
      LOOP:  cpu time   22.0349: real time   22.0464

 eigenvalue-minimisations  :  4536
 total energy-change (2. order) :-0.1368421E+04  (-0.1315385E+04)
 number of electron     176.0000000 magnetization 
 augmentation part      176.0000000 magnetization 

 Free energy of the ion-electron system (eV)
  ---------------------------------------------------
  alpha Z        PSCENC =       248.24729785
  Ewald energy   TEWEN  =    124456.75212892
  -Hartree energ DENC   =   -145454.25815618
  -exchange      EXHF   =         0.00000000
  -V(xc)+E(xc)   XCENC  =       726.81926039
  PAW double counting   =     19651.30655805   -21344.77547402
  entropy T*S    EENTRO =         0.00290287
  eigenvalues    EBANDS =      -477.24993081
  atomic energy  EATOM  =     22255.22547210
  Solvation  Ediel_sol  =         0.00000000
  ---------------------------------------------------
  free energy    TOTEN  =        62.07005918 eV

  energy without entropy =       62.06715631  energy(sigma->0) =       62.06909155


--------------------------------------------------------------------------------------------------------




--------------------------------------- Iteration      1(   3)  ---------------------------------------


     EDDAV:  cpu time   23.1276: real time   23.1270
       DOS:  cpu time    0.0021: real time    0.0021
    --------------------------------------------
      LOOP:  cpu time   23.1296: real time   23.1290

 eigenvalue-minimisations  :  4852
 total energy-change (2. order) :-0.1232423E+03  (-0.1142550E+03)
 number of electron     176.0000000 magnetization 
 augmentation part      176.0000000 magnetization 

 Free energy of the ion-electron system (eV)
  ---------------------------------------------------
  alpha Z        PSCENC =       248.24729785
  Ewald energy   TEWEN  =    124456.75212892
  -Hartree energ DENC   =   -145454.25815618
  -exchange      EXHF   =         0.00000000
  -V(xc)+E(xc)   XCENC  =       726.81926039
  PAW double counting   =     19651.30655805   -21344.77547402
  entropy T*S    EENTRO =         0.00148352
  eigenvalues    EBANDS =      -600.49081458
  atomic energy  EATOM  =     22255.22547210
  Solvation  Ediel_sol  =         0.00000000
  ---------------------------------------------------
  free energy    TOTEN  =       -61.17224394 eV

  energy without entropy =      -61.17372746  energy(sigma->0) =      -61.17273845


--------------------------------------------------------------------------------------------------------




--------------------------------------- Iteration      1(   4)  ---------------------------------------


     EDDAV:  cpu time   23.6064: real time   23.6065
       DOS:  cpu time    0.0020: real time    0.0020
    --------------------------------------------
      LOOP:  cpu time   23.6084: real time   23.6086

 eigenvalue-minimisations  :  4992
 total energy-change (2. order) :-0.5590225E+01  (-0.5481655E+01)
 number of electron     176.0000000 magnetization 
 augmentation part      176.0000000 magnetization 

 Free energy of the ion-electron system (eV)
  ---------------------------------------------------
  alpha Z        PSCENC =       248.24729785
  Ewald energy   TEWEN  =    124456.75212892
  -Hartree energ DENC   =   -145454.25815618
  -exchange      EXHF   =         0.00000000
  -V(xc)+E(xc)   XCENC  =       726.81926039
  PAW double counting   =     19651.30655805   -21344.77547402
  entropy T*S    EENTRO =         0.00051172
  eigenvalues    EBANDS =      -606.08006738
  atomic energy  EATOM  =     22255.22547210
  Solvation  Ediel_sol  =         0.00000000
  ---------------------------------------------------
  free energy    TOTEN  =       -66.76246854 eV

  energy without entropy =      -66.76298026  energy(sigma->0) =      -66.76263912


--------------------------------------------------------------------------------------------------------




--------------------------------------- Iteration      1(   5)  ---------------------------------------


     EDDAV:  cpu time   25.5886: real time   25.5880
       DOS:  cpu time    0.0021: real time    0.0021
    CHARGE:  cpu time    1.6847: real time    1.8071
    MIXING:  cpu time    0.0068: real time    0.1044
    --------------------------------------------
      LOOP:  cpu time   27.2823: real time   27.5016

 eigenvalue-minimisations  :  5568
 total energy-change (2. order) :-0.1703898E+00  (-0.1697951E+00)
 number of electron     176.0000016 magnetization 
 augmentation part      104.7225658 magnetization 

 Broyden mixing:
  rms(total) = 0.28141E+01    rms(broyden)= 0.28140E+01
  rms(prec ) = 0.29180E+01
  weight for this iteration     100.00

 Free energy of the ion-electron system (eV)
  ---------------------------------------------------
  alpha Z        PSCENC =       248.24729785
  Ewald energy   TEWEN  =    124456.75212892
  -Hartree energ DENC   =   -145454.25815618
  -exchange      EXHF   =         0.00000000
  -V(xc)+E(xc)   XCENC  =       726.81926039
  PAW double counting   =     19651.30655805   -21344.77547402
  entropy T*S    EENTRO =         0.00042848
  eigenvalues    EBANDS =      -606.25037396
  atomic energy  EATOM  =     22255.22547210
  Solvation  Ediel_sol  =         0.00000000
  ---------------------------------------------------
  free energy    TOTEN  =       -66.93285836 eV

  energy without entropy =      -66.93328684  energy(sigma->0) =      -66.93300119


--------------------------------------------------------------------------------------------------------




--------------------------------------- Iteration      1(   6)  ---------------------------------------


    POTLOK:  cpu time    0.2120: real time    0.2192
    SETDIJ:  cpu time    0.1598: real time    0.1617
     EDDAV:  cpu time   23.8196: real time   23.8214
       DOS:  cpu time    0.0022: real time    0.0022
    CHARGE:  cpu time    1.6591: real time    1.6606
    MIXING:  cpu time    0.0071: real time    0.0071
    --------------------------------------------
      LOOP:  cpu time   25.8608: real time   25.8722

 eigenvalue-minimisations  :  5044
 total energy-change (2. order) : 0.6064262E+01  (-0.1491622E+02)
 number of electron     176.0000018 magnetization 
 augmentation part      117.3295372 magnetization 

 Broyden mixing:
  rms(total) = 0.15864E+01    rms(broyden)= 0.15861E+01
  rms(prec ) = 0.16500E+01
  weight for this iteration     100.00

 eigenvalues of (default mixing * dielectric matrix)
  average eigenvalue GAMMA=   0.6416
  0.6416

 Free energy of the ion-electron system (eV)
  ---------------------------------------------------
  alpha Z        PSCENC =       248.24729785
  Ewald energy   TEWEN  =    124456.75212892
  -Hartree energ DENC   =   -145030.67083101
  -exchange      EXHF   =         0.00000000
  -V(xc)+E(xc)   XCENC  =       706.10010532
  PAW double counting   =     19798.96738432   -21408.13896961
  entropy T*S    EENTRO =        -0.00208418
  eigenvalues    EBANDS =     -1087.34910045
  atomic energy  EATOM  =     22255.22547210
  Solvation  Ediel_sol  =         0.00000000
  ---------------------------------------------------
  free energy    TOTEN  =       -60.86859675 eV

  energy without entropy =      -60.86651257  energy(sigma->0) =      -60.86790203


--------------------------------------------------------------------------------------------------------




--------------------------------------- Iteration      1(   7)  ---------------------------------------


    POTLOK:  cpu time    0.2073: real time    0.2144
    SETDIJ:  cpu time    0.1595: real time    0.1615
     EDDAV:  cpu time   24.7709: real time   24.7701
       DOS:  cpu time    0.0022: real time    0.0022
    CHARGE:  cpu time    1.6598: real time    1.6614
    MIXING:  cpu time    0.0076: real time    0.0076
    --------------------------------------------
      LOOP:  cpu time   26.8064: real time   26.8173

 eigenvalue-minimisations  :  5320
 total energy-change (2. order) : 0.6057568E+01  (-0.2771080E+01)
 number of electron     176.0000017 magnetization 
 augmentation part      113.2920749 magnetization 

 Broyden mixing:
  rms(total) = 0.42116E+00    rms(broyden)= 0.42110E+00
  rms(prec ) = 0.43743E+00
  weight for this iteration     100.00

 eigenvalues of (default mixing * dielectric matrix)
  average eigenvalue GAMMA=   0.4943
  0.6243  0.3644

 Free energy of the ion-electron system (eV)
  ---------------------------------------------------
  alpha Z        PSCENC =       248.24729785
  Ewald energy   TEWEN  =    124456.75212892
  -Hartree energ DENC   =   -145234.92720117
  -exchange      EXHF   =         0.00000000
  -V(xc)+E(xc)   XCENC  =       712.96923296
  PAW double counting   =     20172.24176693   -21851.93049646
  entropy T*S    EENTRO =         0.00153726
  eigenvalues    EBANDS =      -813.39076677
  atomic energy  EATOM  =     22255.22547210
  Solvation  Ediel_sol  =         0.00000000
  ---------------------------------------------------
  free energy    TOTEN  =       -54.81102839 eV

  energy without entropy =      -54.81256565  energy(sigma->0) =      -54.81154081


--------------------------------------------------------------------------------------------------------




--------------------------------------- Iteration      1(   8)  ---------------------------------------


    POTLOK:  cpu time    0.2083: real time    0.2156
    SETDIJ:  cpu time    0.1596: real time    0.1616
     EDDAV:  cpu time   24.5271: real time   24.5264
       DOS:  cpu time    0.0022: real time    0.0022
    CHARGE:  cpu time    1.6609: real time    1.6626
    MIXING:  cpu time    0.0071: real time    0.0071
    --------------------------------------------
      LOOP:  cpu time   26.5652: real time   26.5754

 eigenvalue-minimisations  :  5252
 total energy-change (2. order) :-0.7348918E-01  (-0.4944465E+00)
 number of electron     176.0000017 magnetization 
 augmentation part      112.6533081 magnetization 

 Broyden mixing:
  rms(total) = 0.15097E+00    rms(broyden)= 0.15093E+00
  rms(prec ) = 0.16231E+00
  weight for this iteration     100.00

 eigenvalues of (default mixing * dielectric matrix)
  average eigenvalue GAMMA=   0.9052
  1.7633  0.6246  0.3278

 Free energy of the ion-electron system (eV)
  ---------------------------------------------------
  alpha Z        PSCENC =       248.24729785
  Ewald energy   TEWEN  =    124456.75212892
  -Hartree energ DENC   =   -145243.66554802
  -exchange      EXHF   =         0.00000000
  -V(xc)+E(xc)   XCENC  =       713.21976705
  PAW double counting   =     20284.41725144   -21974.94143907
  entropy T*S    EENTRO =         0.00060348
  eigenvalues    EBANDS =      -794.14005131
  atomic energy  EATOM  =     22255.22547210
  Solvation  Ediel_sol  =         0.00000000
  ---------------------------------------------------
  free energy    TOTEN  =       -54.88451756 eV

  energy without entropy =      -54.88512104  energy(sigma->0) =      -54.88471872


--------------------------------------------------------------------------------------------------------




--------------------------------------- Iteration      1(   9)  ---------------------------------------


    POTLOK:  cpu time    0.2068: real time    0.2141
    SETDIJ:  cpu time    0.1599: real time    0.1617
     EDDAV:  cpu time   24.6877: real time   24.6869
       DOS:  cpu time    0.0022: real time    0.0022
    CHARGE:  cpu time    1.6660: real time    1.6675
    MIXING:  cpu time    0.0075: real time    0.0075
    --------------------------------------------
      LOOP:  cpu time   26.7301: real time   26.7399

 eigenvalue-minimisations  :  5296
 total energy-change (2. order) :-0.8240936E-01  (-0.1683022E+00)
 number of electron     176.0000017 magnetization 
 augmentation part      111.7862901 magnetization 

 Broyden mixing:
  rms(total) = 0.28302E+00    rms(broyden)= 0.28300E+00
  rms(prec ) = 0.29375E+00
  weight for this iteration     100.00

 eigenvalues of (default mixing * dielectric matrix)
  average eigenvalue GAMMA=   1.0728
  2.2312  0.9481  0.7641  0.3476

 Free energy of the ion-electron system (eV)
  ---------------------------------------------------
  alpha Z        PSCENC =       248.24729785
  Ewald energy   TEWEN  =    124456.75212892
  -Hartree energ DENC   =   -145265.48183853
  -exchange      EXHF   =         0.00000000
  -V(xc)+E(xc)   XCENC  =       712.90471668
  PAW double counting   =     20607.27933661   -22324.33727910
  entropy T*S    EENTRO =        -0.00370199
  eigenvalues    EBANDS =      -745.55305947
  atomic energy  EATOM  =     22255.22547210
  Solvation  Ediel_sol  =         0.00000000
  ---------------------------------------------------
  free energy    TOTEN  =       -54.96692692 eV

  energy without entropy =      -54.96322493  energy(sigma->0) =      -54.96569292


--------------------------------------------------------------------------------------------------------




--------------------------------------- Iteration      1(  10)  ---------------------------------------


    POTLOK:  cpu time    0.2075: real time    0.2146
    SETDIJ:  cpu time    0.1594: real time    0.1614
     EDDAV:  cpu time   23.4936: real time   23.4929
       DOS:  cpu time    0.0021: real time    0.0021
    CHARGE:  cpu time    1.6610: real time    1.6626
    MIXING:  cpu time    0.0071: real time    0.0071
    --------------------------------------------
      LOOP:  cpu time   25.5308: real time   25.5406

 eigenvalue-minimisations  :  4948
 total energy-change (2. order) : 0.1068782E+00  (-0.1035004E+00)
 number of electron     176.0000017 magnetization 
 augmentation part      112.8656965 magnetization 

 Broyden mixing:
  rms(total) = 0.11077E+00    rms(broyden)= 0.11075E+00
  rms(prec ) = 0.11586E+00
  weight for this iteration     100.00

 eigenvalues of (default mixing * dielectric matrix)
  average eigenvalue GAMMA=   1.1492
  2.5532  1.4443  0.7003  0.7003  0.3479

 Free energy of the ion-electron system (eV)
  ---------------------------------------------------
  alpha Z        PSCENC =       248.24729785
  Ewald energy   TEWEN  =    124456.75212892
  -Hartree energ DENC   =   -145224.88240900
  -exchange      EXHF   =         0.00000000
  -V(xc)+E(xc)   XCENC  =       710.89074377
  PAW double counting   =     20693.96303828   -22408.48468067
  entropy T*S    EENTRO =         0.00003095
  eigenvalues    EBANDS =      -786.57167088
  atomic energy  EATOM  =     22255.22547210
  Solvation  Ediel_sol  =         0.00000000
  ---------------------------------------------------
  free energy    TOTEN  =       -54.86004868 eV

  energy without entropy =      -54.86007963  energy(sigma->0) =      -54.86005900


--------------------------------------------------------------------------------------------------------




--------------------------------------- Iteration      1(  11)  ---------------------------------------


    POTLOK:  cpu time    0.2074: real time    0.2145
    SETDIJ:  cpu time    0.1596: real time    0.1614
     EDDAV:  cpu time   24.0909: real time   24.0902
       DOS:  cpu time    0.0022: real time    0.0022
    CHARGE:  cpu time    1.6650: real time    1.6657
    MIXING:  cpu time    0.0081: real time    0.0081
    --------------------------------------------
      LOOP:  cpu time   26.1332: real time   26.1421

 eigenvalue-minimisations  :  5128
 total energy-change (2. order) : 0.1847028E-01  (-0.8012046E-02)
 number of electron     176.0000017 magnetization 
 augmentation part      112.7116390 magnetization 

 Broyden mixing:
  rms(total) = 0.61064E-01    rms(broyden)= 0.61064E-01
  rms(prec ) = 0.64105E-01
  weight for this iteration     100.00

 eigenvalues of (default mixing * dielectric matrix)
  average eigenvalue GAMMA=   1.1130
  2.5926  1.5448  0.3477  0.6985  0.7471  0.7471

 Free energy of the ion-electron system (eV)
  ---------------------------------------------------
  alpha Z        PSCENC =       248.24729785
  Ewald energy   TEWEN  =    124456.75212892
  -Hartree energ DENC   =   -145237.26047842
  -exchange      EXHF   =         0.00000000
  -V(xc)+E(xc)   XCENC  =       711.08235313
  PAW double counting   =     20728.94791734   -22447.39442398
  entropy T*S    EENTRO =        -0.00072564
  eigenvalues    EBANDS =      -770.44111970
  atomic energy  EATOM  =     22255.22547210
  Solvation  Ediel_sol  =         0.00000000
  ---------------------------------------------------
  free energy    TOTEN  =       -54.84157841 eV

  energy without entropy =      -54.84085276  energy(sigma->0) =      -54.84133652


--------------------------------------------------------------------------------------------------------




--------------------------------------- Iteration      1(  12)  ---------------------------------------


    POTLOK:  cpu time    0.2080: real time    0.2153
    SETDIJ:  cpu time    0.1600: real time    0.1619
     EDDAV:  cpu time   24.7327: real time   24.7319
       DOS:  cpu time    0.0022: real time    0.0022
    CHARGE:  cpu time    1.6656: real time    1.6662
    MIXING:  cpu time    0.0085: real time    0.0085
    --------------------------------------------
      LOOP:  cpu time   26.7769: real time   26.7860

 eigenvalue-minimisations  :  5316
 total energy-change (2. order) : 0.5732396E-02  (-0.8144301E-03)
 number of electron     176.0000017 magnetization 
 augmentation part      112.6387815 magnetization 

 Broyden mixing:
  rms(total) = 0.37011E-01    rms(broyden)= 0.37011E-01
  rms(prec ) = 0.39360E-01
  weight for this iteration     100.00

 eigenvalues of (default mixing * dielectric matrix)
  average eigenvalue GAMMA=   1.0804
  2.6205  1.6889  0.8745  0.8745  0.7809  0.3479  0.3759

 Free energy of the ion-electron system (eV)
  ---------------------------------------------------
  alpha Z        PSCENC =       248.24729785
  Ewald energy   TEWEN  =    124456.75212892
  -Hartree energ DENC   =   -145245.11555894
  -exchange      EXHF   =         0.00000000
  -V(xc)+E(xc)   XCENC  =       711.22220024
  PAW double counting   =     20725.61802957   -22444.73127975
  entropy T*S    EENTRO =        -0.00102419
  eigenvalues    EBANDS =      -762.05311181
  atomic energy  EATOM  =     22255.22547210
  Solvation  Ediel_sol  =         0.00000000
  ---------------------------------------------------
  free energy    TOTEN  =       -54.83584601 eV

  energy without entropy =      -54.83482182  energy(sigma->0) =      -54.83550461


--------------------------------------------------------------------------------------------------------




--------------------------------------- Iteration      1(  13)  ---------------------------------------


    POTLOK:  cpu time    0.2071: real time    0.2143
    SETDIJ:  cpu time    0.1599: real time    0.1618
     EDDAV:  cpu time   23.8965: real time   23.8963
       DOS:  cpu time    0.0022: real time    0.0022
    CHARGE:  cpu time    1.6643: real time    1.6659
    MIXING:  cpu time    0.0081: real time    0.0081
    --------------------------------------------
      LOOP:  cpu time   25.9381: real time   25.9485

 eigenvalue-minimisations  :  5072
 total energy-change (2. order) : 0.2061148E-02  (-0.5835841E-03)
 number of electron     176.0000017 magnetization 
 augmentation part      112.5869629 magnetization 

 Broyden mixing:
  rms(total) = 0.18953E-01    rms(broyden)= 0.18952E-01
  rms(prec ) = 0.20728E-01
  weight for this iteration     100.00

 eigenvalues of (default mixing * dielectric matrix)
  average eigenvalue GAMMA=   1.2377
  2.6375  2.6375  1.5347  0.7969  0.8115  0.8115  0.3477  0.3248

 Free energy of the ion-electron system (eV)
  ---------------------------------------------------
  alpha Z        PSCENC =       248.24729785
  Ewald energy   TEWEN  =    124456.75212892
  -Hartree energ DENC   =   -145250.38912958
  -exchange      EXHF   =         0.00000000
  -V(xc)+E(xc)   XCENC  =       711.31315055
  PAW double counting   =     20721.52977086   -22440.95772212
  entropy T*S    EENTRO =        -0.00122868
  eigenvalues    EBANDS =      -756.55352475
  atomic energy  EATOM  =     22255.22547210
  Solvation  Ediel_sol  =         0.00000000
  ---------------------------------------------------
  free energy    TOTEN  =       -54.83378486 eV

  energy without entropy =      -54.83255618  energy(sigma->0) =      -54.83337530


--------------------------------------------------------------------------------------------------------




--------------------------------------- Iteration      1(  14)  ---------------------------------------


    POTLOK:  cpu time    0.2050: real time    0.2121
    SETDIJ:  cpu time    0.1599: real time    0.1616
     EDDAV:  cpu time   23.9709: real time   23.9709
       DOS:  cpu time    0.0022: real time    0.0022
    CHARGE:  cpu time    1.6660: real time    1.6667
    MIXING:  cpu time    0.0087: real time    0.0087
    --------------------------------------------
      LOOP:  cpu time   26.0127: real time   26.0222

 eigenvalue-minimisations  :  5096
 total energy-change (2. order) : 0.1374426E-03  (-0.1597821E-02)
 number of electron     176.0000017 magnetization 
 augmentation part      112.4660583 magnetization 

 Broyden mixing:
  rms(total) = 0.22714E-01    rms(broyden)= 0.22711E-01
  rms(prec ) = 0.23673E-01
  weight for this iteration     100.00

 eigenvalues of (default mixing * dielectric matrix)
  average eigenvalue GAMMA=   1.1573
  2.7388  2.7388  1.5507  0.8240  0.8240  0.8043  0.3478  0.3393  0.2483

 Free energy of the ion-electron system (eV)
  ---------------------------------------------------
  alpha Z        PSCENC =       248.24729785
  Ewald energy   TEWEN  =    124456.75212892
  -Hartree energ DENC   =   -145263.11606763
  -exchange      EXHF   =         0.00000000
  -V(xc)+E(xc)   XCENC  =       711.50693607
  PAW double counting   =     20709.52601759   -22429.45145877
  entropy T*S    EENTRO =        -0.00166888
  eigenvalues    EBANDS =      -743.52230466
  atomic energy  EATOM  =     22255.22547210
  Solvation  Ediel_sol  =         0.00000000
  ---------------------------------------------------
  free energy    TOTEN  =       -54.83364742 eV

  energy without entropy =      -54.83197854  energy(sigma->0) =      -54.83309113


--------------------------------------------------------------------------------------------------------




--------------------------------------- Iteration      1(  15)  ---------------------------------------


    POTLOK:  cpu time    0.2066: real time    0.2137
    SETDIJ:  cpu time    0.1600: real time    0.1618
     EDDAV:  cpu time   23.9086: real time   23.9079
       DOS:  cpu time    0.0021: real time    0.0021
    CHARGE:  cpu time    1.6648: real time    1.6655
    MIXING:  cpu time    0.0088: real time    0.0087
    --------------------------------------------
      LOOP:  cpu time   25.9508: real time   25.9597

 eigenvalue-minimisations  :  5076
 total energy-change (2. order) : 0.1548430E-03  (-0.1274849E-03)
 number of electron     176.0000017 magnetization 
 augmentation part      112.4695552 magnetization 

 Broyden mixing:
  rms(total) = 0.20664E-01    rms(broyden)= 0.20664E-01
  rms(prec ) = 0.21519E-01
  weight for this iteration     100.00

 eigenvalues of (default mixing * dielectric matrix)
  average eigenvalue GAMMA=   1.1652
  2.8401  2.8401  1.5098  1.2026  0.7967  0.7967  0.7032  0.3477  0.3300  0.2853

 Free energy of the ion-electron system (eV)
  ---------------------------------------------------
  alpha Z        PSCENC =       248.24729785
  Ewald energy   TEWEN  =    124456.75212892
  -Hartree energ DENC   =   -145264.43700796
  -exchange      EXHF   =         0.00000000
  -V(xc)+E(xc)   XCENC  =       711.49740834
  PAW double counting   =     20707.66173368   -22427.45066288
  entropy T*S    EENTRO =        -0.00166006
  eigenvalues    EBANDS =      -742.32820256
  atomic energy  EATOM  =     22255.22547210
  Solvation  Ediel_sol  =         0.00000000
  ---------------------------------------------------
  free energy    TOTEN  =       -54.83349258 eV

  energy without entropy =      -54.83183252  energy(sigma->0) =      -54.83293922


--------------------------------------------------------------------------------------------------------




--------------------------------------- Iteration      1(  16)  ---------------------------------------


    POTLOK:  cpu time    0.2077: real time    0.2150
    SETDIJ:  cpu time    0.1600: real time    0.1618
     EDDAV:  cpu time   23.0418: real time   23.0411
       DOS:  cpu time    0.0022: real time    0.0022
    CHARGE:  cpu time    1.6630: real time    1.6645
    MIXING:  cpu time    0.0086: real time    0.0086
    --------------------------------------------
      LOOP:  cpu time   25.0832: real time   25.0931

 eigenvalue-minimisations  :  4828
 total energy-change (2. order) : 0.6363052E-03  (-0.4492002E-03)
 number of electron     176.0000017 magnetization 
 augmentation part      112.5376095 magnetization 

 Broyden mixing:
  rms(total) = 0.32919E-02    rms(broyden)= 0.32887E-02
  rms(prec ) = 0.36907E-02
  weight for this iteration     100.00

 eigenvalues of (default mixing * dielectric matrix)
  average eigenvalue GAMMA=   1.2982
  3.3466  2.8989  2.1755  1.6810  0.8286  0.8286  0.7783  0.7783  0.3477  0.3321
  0.2851

 Free energy of the ion-electron system (eV)
  ---------------------------------------------------
  alpha Z        PSCENC =       248.24729785
  Ewald energy   TEWEN  =    124456.75212892
  -Hartree energ DENC   =   -145264.82929573
  -exchange      EXHF   =         0.00000000
  -V(xc)+E(xc)   XCENC  =       711.39885650
  PAW double counting   =     20705.39295876   -22424.55460261
  entropy T*S    EENTRO =        -0.00149356
  eigenvalues    EBANDS =      -742.46417851
  atomic energy  EATOM  =     22255.22547210
  Solvation  Ediel_sol  =         0.00000000
  ---------------------------------------------------
  free energy    TOTEN  =       -54.83285627 eV

  energy without entropy =      -54.83136271  energy(sigma->0) =      -54.83235842


--------------------------------------------------------------------------------------------------------




--------------------------------------- Iteration      1(  17)  ---------------------------------------


    POTLOK:  cpu time    0.2108: real time    0.2179
    SETDIJ:  cpu time    0.1597: real time    0.1618
     EDDAV:  cpu time   24.9108: real time   24.9100
       DOS:  cpu time    0.0022: real time    0.0022
    CHARGE:  cpu time    1.6604: real time    1.6621
    MIXING:  cpu time    0.0090: real time    0.0090
    --------------------------------------------
      LOOP:  cpu time   26.9530: real time   26.9630

 eigenvalue-minimisations  :  5372
 total energy-change (2. order) :-0.1910823E-03  (-0.1936293E-04)
 number of electron     176.0000017 magnetization 
 augmentation part      112.5380093 magnetization 

 Broyden mixing:
  rms(total) = 0.29744E-02    rms(broyden)= 0.29742E-02
  rms(prec ) = 0.32000E-02
  weight for this iteration     100.00

 eigenvalues of (default mixing * dielectric matrix)
  average eigenvalue GAMMA=   1.3714
  3.5539  3.5539  2.1010  1.4790  1.4790  0.7957  0.7957  0.8957  0.8389  0.3477
  0.3323  0.2843

 Free energy of the ion-electron system (eV)
  ---------------------------------------------------
  alpha Z        PSCENC =       248.24729785
  Ewald energy   TEWEN  =    124456.75212892
  -Hartree energ DENC   =   -145266.95133178
  -exchange      EXHF   =         0.00000000
  -V(xc)+E(xc)   XCENC  =       711.40091580
  PAW double counting   =     20706.19416741   -22425.42149138
  entropy T*S    EENTRO =        -0.00151033
  eigenvalues    EBANDS =      -740.27869595
  atomic energy  EATOM  =     22255.22547210
  Solvation  Ediel_sol  =         0.00000000
  ---------------------------------------------------
  free energy    TOTEN  =       -54.83304735 eV

  energy without entropy =      -54.83153703  energy(sigma->0) =      -54.83254391


--------------------------------------------------------------------------------------------------------




--------------------------------------- Iteration      1(  18)  ---------------------------------------


    POTLOK:  cpu time    0.2130: real time    0.2198
    SETDIJ:  cpu time    0.1599: real time    0.1617
     EDDAV:  cpu time   28.9074: real time   28.9066
       DOS:  cpu time    0.0022: real time    0.0022
    CHARGE:  cpu time    1.6631: real time    1.6637
    MIXING:  cpu time    0.0093: real time    0.0093
    --------------------------------------------
      LOOP:  cpu time   30.9549: real time   30.9633

 eigenvalue-minimisations  :  6528
 total energy-change (2. order) :-0.1192046E-03  (-0.1330364E-05)
 number of electron     176.0000017 magnetization 
 augmentation part      112.5377015 magnetization 

 Broyden mixing:
  rms(total) = 0.27744E-02    rms(broyden)= 0.27744E-02
  rms(prec ) = 0.29465E-02
  weight for this iteration     100.00

 eigenvalues of (default mixing * dielectric matrix)
  average eigenvalue GAMMA=   1.4714
  4.9331  3.0132  2.1578  2.1578  1.7322  0.8480  0.8702  0.8702  0.7906  0.7906
  0.3477  0.3324  0.2841

 Free energy of the ion-electron system (eV)
  ---------------------------------------------------
  alpha Z        PSCENC =       248.24729785
  Ewald energy   TEWEN  =    124456.75212892
  -Hartree energ DENC   =   -145267.82672722
  -exchange      EXHF   =         0.00000000
  -V(xc)+E(xc)   XCENC  =       711.40320498
  PAW double counting   =     20706.08012698   -22425.29790510
  entropy T*S    EENTRO =        -0.00151197
  eigenvalues    EBANDS =      -739.41525310
  atomic energy  EATOM  =     22255.22547210
  Solvation  Ediel_sol  =         0.00000000
  ---------------------------------------------------
  free energy    TOTEN  =       -54.83316656 eV

  energy without entropy =      -54.83165459  energy(sigma->0) =      -54.83266257


--------------------------------------------------------------------------------------------------------




--------------------------------------- Iteration      1(  19)  ---------------------------------------


    POTLOK:  cpu time    0.2145: real time    0.2217
    SETDIJ:  cpu time    0.1598: real time    0.1616
     EDDAV:  cpu time   24.4293: real time   24.4286
       DOS:  cpu time    0.0022: real time    0.0022
    CHARGE:  cpu time    1.6626: real time    1.6632
    MIXING:  cpu time    0.0122: real time    0.0122
    --------------------------------------------
      LOOP:  cpu time   26.4806: real time   26.4895

 eigenvalue-minimisations  :  5232
 total energy-change (2. order) :-0.8750174E-04  (-0.7461601E-05)
 number of electron     176.0000017 magnetization 
 augmentation part      112.5295131 magnetization 

 Broyden mixing:
  rms(total) = 0.53830E-03    rms(broyden)= 0.53753E-03
  rms(prec ) = 0.70672E-03
  weight for this iteration     100.00

 eigenvalues of (default mixing * dielectric matrix)
  average eigenvalue GAMMA=   1.5218
  5.4585  2.9231  2.9231  2.2027  1.6103  1.2664  0.7963  0.7963  0.8541  0.8541
  0.6561  0.3477  0.3324  0.2840

 Free energy of the ion-electron system (eV)
  ---------------------------------------------------
  alpha Z        PSCENC =       248.24729785
  Ewald energy   TEWEN  =    124456.75212892
  -Hartree energ DENC   =   -145268.88832957
  -exchange      EXHF   =         0.00000000
  -V(xc)+E(xc)   XCENC  =       711.41725747
  PAW double counting   =     20706.10442899   -22425.40354801
  entropy T*S    EENTRO =        -0.00154123
  eigenvalues    EBANDS =      -738.28642058
  atomic energy  EATOM  =     22255.22547210
  Solvation  Ediel_sol  =         0.00000000
  ---------------------------------------------------
  free energy    TOTEN  =       -54.83325406 eV

  energy without entropy =      -54.83171283  energy(sigma->0) =      -54.83274032


--------------------------------------------------------------------------------------------------------




--------------------------------------- Iteration      1(  20)  ---------------------------------------


    POTLOK:  cpu time    0.2158: real time    0.2231
    SETDIJ:  cpu time    0.1599: real time    0.1619
     EDDAV:  cpu time   23.7735: real time   23.7728
       DOS:  cpu time    0.0022: real time    0.0022
    CHARGE:  cpu time    1.6623: real time    1.6641
    MIXING:  cpu time    0.0083: real time    0.0083
    --------------------------------------------
      LOOP:  cpu time   25.8221: real time   25.8324

 eigenvalue-minimisations  :  5044
 total energy-change (2. order) :-0.1109782E-03  (-0.4372219E-05)
 number of electron     176.0000017 magnetization 
 augmentation part      112.5255774 magnetization 

 Broyden mixing:
  rms(total) = 0.14296E-02    rms(broyden)= 0.14294E-02
  rms(prec ) = 0.15006E-02
  weight for this iteration     100.00

 eigenvalues of (default mixing * dielectric matrix)
  average eigenvalue GAMMA=   1.5753
  5.8124  3.9184  2.3095  2.3095  1.5964  1.5964  1.2635  0.8158  0.8158  0.7930
  0.7930  0.6419  0.3477  0.3324  0.2840

 Free energy of the ion-electron system (eV)
  ---------------------------------------------------
  alpha Z        PSCENC =       248.24729785
  Ewald energy   TEWEN  =    124456.75212892
  -Hartree energ DENC   =   -145269.56454460
  -exchange      EXHF   =         0.00000000
  -V(xc)+E(xc)   XCENC  =       711.42133023
  PAW double counting   =     20706.52056177   -22425.88245087
  entropy T*S    EENTRO =        -0.00155497
  eigenvalues    EBANDS =      -737.55160547
  atomic energy  EATOM  =     22255.22547210
  Solvation  Ediel_sol  =         0.00000000
  ---------------------------------------------------
  free energy    TOTEN  =       -54.83336504 eV

  energy without entropy =      -54.83181007  energy(sigma->0) =      -54.83284672


--------------------------------------------------------------------------------------------------------




--------------------------------------- Iteration      1(  21)  ---------------------------------------


    POTLOK:  cpu time    0.2175: real time    0.2244
    SETDIJ:  cpu time    0.1599: real time    0.1616
     EDDAV:  cpu time   23.3451: real time   23.3444
       DOS:  cpu time    0.0022: real time    0.0022
    CHARGE:  cpu time    1.6635: real time    1.6651
    MIXING:  cpu time    0.0100: real time    0.0100
    --------------------------------------------
      LOOP:  cpu time   25.3982: real time   25.4078

 eigenvalue-minimisations  :  4904
 total energy-change (2. order) :-0.6557078E-04  (-0.1948199E-05)
 number of electron     176.0000017 magnetization 
 augmentation part      112.5293998 magnetization 

 Broyden mixing:
  rms(total) = 0.19555E-03    rms(broyden)= 0.19436E-03
  rms(prec ) = 0.24419E-03
  weight for this iteration     100.00

 eigenvalues of (default mixing * dielectric matrix)
  average eigenvalue GAMMA=   1.6863
  6.2618  4.4726  3.1278  2.4030  1.7342  1.7342  1.2875  1.0754  0.8136  0.8136
  0.8166  0.8166  0.6604  0.3477  0.3324  0.2840

 Free energy of the ion-electron system (eV)
  ---------------------------------------------------
  alpha Z        PSCENC =       248.24729785
  Ewald energy   TEWEN  =    124456.75212892
  -Hartree energ DENC   =   -145269.60516903
  -exchange      EXHF   =         0.00000000
  -V(xc)+E(xc)   XCENC  =       711.41459657
  PAW double counting   =     20706.49588654   -22425.80544596
  entropy T*S    EENTRO =        -0.00153995
  eigenvalues    EBANDS =      -737.55665765
  atomic energy  EATOM  =     22255.22547210
  Solvation  Ediel_sol  =         0.00000000
  ---------------------------------------------------
  free energy    TOTEN  =       -54.83343061 eV

  energy without entropy =      -54.83189066  energy(sigma->0) =      -54.83291729


--------------------------------------------------------------------------------------------------------




--------------------------------------- Iteration      1(  22)  ---------------------------------------


    POTLOK:  cpu time    0.2181: real time    0.2251
    SETDIJ:  cpu time    0.1593: real time    0.1613
     EDDAV:  cpu time   24.6641: real time   24.6633
       DOS:  cpu time    0.0022: real time    0.0022
    CHARGE:  cpu time    1.6644: real time    1.6659
    MIXING:  cpu time    0.0103: real time    0.0103
    --------------------------------------------
      LOOP:  cpu time   26.7183: real time   26.7281

 eigenvalue-minimisations  :  5288
 total energy-change (2. order) :-0.5639382E-04  (-0.2734001E-06)
 number of electron     176.0000017 magnetization 
 augmentation part      112.5292969 magnetization 

 Broyden mixing:
  rms(total) = 0.11563E-03    rms(broyden)= 0.11391E-03
  rms(prec ) = 0.13431E-03
  weight for this iteration     100.00

 eigenvalues of (default mixing * dielectric matrix)
  average eigenvalue GAMMA=   1.7629
  6.8318  5.2432  2.5558  2.5558  2.4829  1.6289  1.6289  1.2473  0.9064  0.8282
  0.8282  0.7995  0.7995  0.6682  0.3477  0.3324  0.2840

 Free energy of the ion-electron system (eV)
  ---------------------------------------------------
  alpha Z        PSCENC =       248.24729785
  Ewald energy   TEWEN  =    124456.75212892
  -Hartree energ DENC   =   -145269.86305782
  -exchange      EXHF   =         0.00000000
  -V(xc)+E(xc)   XCENC  =       711.41522788
  PAW double counting   =     20706.44613513   -22425.75784566
  entropy T*S    EENTRO =        -0.00154268
  eigenvalues    EBANDS =      -737.29730271
  atomic energy  EATOM  =     22255.22547210
  Solvation  Ediel_sol  =         0.00000000
  ---------------------------------------------------
  free energy    TOTEN  =       -54.83348700 eV

  energy without entropy =      -54.83194432  energy(sigma->0) =      -54.83297278


--------------------------------------------------------------------------------------------------------




--------------------------------------- Iteration      1(  23)  ---------------------------------------


    POTLOK:  cpu time    0.2183: real time    0.2252
    SETDIJ:  cpu time    0.1597: real time    0.1614
     EDDAV:  cpu time   23.0843: real time   23.0836
       DOS:  cpu time    0.0021: real time    0.0021
    CHARGE:  cpu time    1.6645: real time    1.6661
    MIXING:  cpu time    0.0096: real time    0.0096
    --------------------------------------------
      LOOP:  cpu time   25.1394: real time   25.1480

 eigenvalue-minimisations  :  4824
 total energy-change (2. order) :-0.2845184E-04  (-0.9448185E-07)
 number of electron     176.0000017 magnetization 
 augmentation part      112.5299245 magnetization 

 Broyden mixing:
  rms(total) = 0.15976E-03    rms(broyden)= 0.15851E-03
  rms(prec ) = 0.16909E-03
  weight for this iteration     100.00

 eigenvalues of (default mixing * dielectric matrix)
  average eigenvalue GAMMA=   1.8408
  7.8308  5.1946  3.4886  2.7857  2.0171  1.6614  1.6614  1.6009  1.0595  0.9592
  0.8180  0.8180  0.8032  0.8032  0.6681  0.3477  0.3324  0.2840

 Free energy of the ion-electron system (eV)
  ---------------------------------------------------
  alpha Z        PSCENC =       248.24729785
  Ewald energy   TEWEN  =    124456.75212892
  -Hartree energ DENC   =   -145269.88469534
  -exchange      EXHF   =         0.00000000
  -V(xc)+E(xc)   XCENC  =       711.41444440
  PAW double counting   =     20706.40662803   -22425.70834798
  entropy T*S    EENTRO =        -0.00154066
  eigenvalues    EBANDS =      -737.28490277
  atomic energy  EATOM  =     22255.22547210
  Solvation  Ediel_sol  =         0.00000000
  ---------------------------------------------------
  free energy    TOTEN  =       -54.83351545 eV

  energy without entropy =      -54.83197479  energy(sigma->0) =      -54.83300190


--------------------------------------------------------------------------------------------------------




--------------------------------------- Iteration      1(  24)  ---------------------------------------


    POTLOK:  cpu time    0.2177: real time    0.2246
    SETDIJ:  cpu time    0.1596: real time    0.1615
     EDDAV:  cpu time   17.8272: real time   17.8267
       DOS:  cpu time    0.0022: real time    0.0022
    CHARGE:  cpu time    1.6631: real time    1.6647
    MIXING:  cpu time    0.0103: real time    0.0103
    --------------------------------------------
      LOOP:  cpu time   19.8802: real time   19.8900

 eigenvalue-minimisations  :  3292
 total energy-change (2. order) :-0.1552809E-04  (-0.3419498E-07)
 number of electron     176.0000017 magnetization 
 augmentation part      112.5299803 magnetization 

 Broyden mixing:
  rms(total) = 0.16947E-03    rms(broyden)= 0.16830E-03
  rms(prec ) = 0.17418E-03
  weight for this iteration     100.00

 eigenvalues of (default mixing * dielectric matrix)
  average eigenvalue GAMMA=   1.8604
  7.8786  5.6557  3.0985  2.6415  2.6415  2.2916  1.5690  1.5690  1.2881  0.9115
  0.9115  0.8239  0.8239  0.8061  0.8061  0.6666  0.3477  0.3324  0.2840

 Free energy of the ion-electron system (eV)
  ---------------------------------------------------
  alpha Z        PSCENC =       248.24729785
  Ewald energy   TEWEN  =    124456.75212892
  -Hartree energ DENC   =   -145269.95512145
  -exchange      EXHF   =         0.00000000
  -V(xc)+E(xc)   XCENC  =       711.41454799
  PAW double counting   =     20706.30155438   -22425.59945188
  entropy T*S    EENTRO =        -0.00154165
  eigenvalues    EBANDS =      -737.21841725
  atomic energy  EATOM  =     22255.22547210
  Solvation  Ediel_sol  =         0.00000000
  ---------------------------------------------------
  free energy    TOTEN  =       -54.83353098 eV

  energy without entropy =      -54.83198933  energy(sigma->0) =      -54.83301710


--------------------------------------------------------------------------------------------------------




--------------------------------------- Iteration      1(  25)  ---------------------------------------


    POTLOK:  cpu time    0.2178: real time    0.2247
    SETDIJ:  cpu time    0.1595: real time    0.1613
     EDDAV:  cpu time   21.1917: real time   21.1911
       DOS:  cpu time    0.0022: real time    0.0022
    CHARGE:  cpu time    1.6645: real time    1.6662
    MIXING:  cpu time    0.0110: real time    0.0110
    --------------------------------------------
      LOOP:  cpu time   23.2458: real time   23.2565

 eigenvalue-minimisations  :  4276
 total energy-change (2. order) :-0.4725902E-05  (-0.4261416E-07)
 number of electron     176.0000017 magnetization 
 augmentation part      112.5293639 magnetization 

 Broyden mixing:
  rms(total) = 0.60888E-04    rms(broyden)= 0.57549E-04
  rms(prec ) = 0.60321E-04
  weight for this iteration     100.00

 eigenvalues of (default mixing * dielectric matrix)
  average eigenvalue GAMMA=   1.9009
  8.4022  5.8832  3.6778  3.0214  2.2966  2.2966  1.6548  1.4834  1.4834  1.0214
  1.0214  0.8937  0.8266  0.8266  0.7995  0.7995  0.6664  0.3477  0.3324  0.2840

 Free energy of the ion-electron system (eV)
  ---------------------------------------------------
  alpha Z        PSCENC =       248.24729785
  Ewald energy   TEWEN  =    124456.75212892
  -Hartree energ DENC   =   -145269.96651753
  -exchange      EXHF   =         0.00000000
  -V(xc)+E(xc)   XCENC  =       711.41535349
  PAW double counting   =     20706.37872670   -22425.68735122
  entropy T*S    EENTRO =        -0.00154292
  eigenvalues    EBANDS =      -737.19710309
  atomic energy  EATOM  =     22255.22547210
  Solvation  Ediel_sol  =         0.00000000
  ---------------------------------------------------
  free energy    TOTEN  =       -54.83353571 eV

  energy without entropy =      -54.83199279  energy(sigma->0) =      -54.83302140


--------------------------------------------------------------------------------------------------------




--------------------------------------- Iteration      1(  26)  ---------------------------------------


    POTLOK:  cpu time    0.2181: real time    0.2252
    SETDIJ:  cpu time    0.1593: real time    0.1613
     EDDAV:  cpu time   16.3258: real time   16.3257
       DOS:  cpu time    0.0021: real time    0.0021
    CHARGE:  cpu time    1.6620: real time    1.6636
    MIXING:  cpu time    0.0107: real time    0.0107
    --------------------------------------------
      LOOP:  cpu time   18.3781: real time   18.3888

 eigenvalue-minimisations  :  2864
 total energy-change (2. order) :-0.1801283E-05  (-0.6553229E-08)
 number of electron     176.0000017 magnetization 
 augmentation part      112.5292989 magnetization 

 Broyden mixing:
  rms(total) = 0.73473E-04    rms(broyden)= 0.70743E-04
  rms(prec ) = 0.73468E-04
  weight for this iteration     100.00

 eigenvalues of (default mixing * dielectric matrix)
  average eigenvalue GAMMA=   1.8925
  8.3798  6.0023  3.6474  2.8321  2.4976  2.4976  1.6773  1.6773  1.5022  1.2768
  0.9691  0.9462  0.9462  0.8248  0.8248  0.8053  0.8053  0.6667  0.3477  0.3324
  0.2840

 Free energy of the ion-electron system (eV)
  ---------------------------------------------------
  alpha Z        PSCENC =       248.24729785
  Ewald energy   TEWEN  =    124456.75212892
  -Hartree energ DENC   =   -145269.97087148
  -exchange      EXHF   =         0.00000000
  -V(xc)+E(xc)   XCENC  =       711.41547211
  PAW double counting   =     20706.36109599   -22425.66958867
  entropy T*S    EENTRO =        -0.00154322
  eigenvalues    EBANDS =      -737.19300111
  atomic energy  EATOM  =     22255.22547210
  Solvation  Ediel_sol  =         0.00000000
  ---------------------------------------------------
  free energy    TOTEN  =       -54.83353751 eV

  energy without entropy =      -54.83199429  energy(sigma->0) =      -54.83302310


--------------------------------------------------------------------------------------------------------




--------------------------------------- Iteration      1(  27)  ---------------------------------------


    POTLOK:  cpu time    0.2176: real time    0.2247
    SETDIJ:  cpu time    0.1595: real time    0.1615
     EDDAV:  cpu time   16.2502: real time   16.2501
       DOS:  cpu time    0.0022: real time    0.0022
    CHARGE:  cpu time    1.6623: real time    1.6639
    MIXING:  cpu time    0.0103: real time    0.0103
    --------------------------------------------
      LOOP:  cpu time   18.3020: real time   18.3127

 eigenvalue-minimisations  :  2840
 total energy-change (2. order) :-0.3929781E-06  (-0.5527814E-08)
 number of electron     176.0000017 magnetization 
 augmentation part      112.5295146 magnetization 

 Broyden mixing:
  rms(total) = 0.21298E-04    rms(broyden)= 0.77397E-05
  rms(prec ) = 0.81959E-05
  weight for this iteration     100.00
  WARNING: grid for Broyden might be to small

 eigenvalues of (default mixing * dielectric matrix)
  average eigenvalue GAMMA=   1.9180
  8.3892  6.2178  3.7859  3.1126  3.1126  2.0998  2.0998  1.6244  1.4566  1.4566
  1.0304  1.0304  0.9452  0.9452  0.8242  0.8242  0.8047  0.8047  0.6668  0.3477
  0.3324  0.2840

 Free energy of the ion-electron system (eV)
  ---------------------------------------------------
  alpha Z        PSCENC =       248.24729785
  Ewald energy   TEWEN  =    124456.75212892
  -Hartree energ DENC   =   -145269.96418367
  -exchange      EXHF   =         0.00000000
  -V(xc)+E(xc)   XCENC  =       711.41511677
[...]
     12      -5.3035      2.00000
     13      -5.2995      2.00000
     14      -5.2841      2.00000
     15      -5.2430      2.00000
     16      -5.2328      2.00000
     17      -5.1389      2.00000
     18      -5.1012      2.00000
     19      -5.0367      2.00000
     20      -5.0120      2.00000
     21      -4.9016      2.00000
     22      -4.8828      2.00000
     23      -4.8114      2.00000
     24      -4.8113      2.00000
     25      -4.8041      2.00000
     26      -4.7405      2.00000
     27      -4.7354      2.00000
     28      -4.7146      2.00000
     29      -4.6544      2.00000
     30      -4.6234      2.00000
     31      -4.6144      2.00000
     32      -4.5962      2.00000
     33      -4.5228      2.00000
     34      -4.4428      2.00000
     35      -4.3382      2.00000
     36      -4.3069      2.00000
     37      -4.2984      2.00000
     38      -4.2874      2.00000
     39      -4.2229      2.00000
     40      -4.1487      2.00000
     41      -3.9873      2.00000
     42      -3.9541      2.00000
     43      -3.9382      2.00000
     44      -3.9027      2.00000
     45      -3.9017      2.00000
     46      -3.8630      2.00000
     47      -3.8553      2.00000
     48      -3.8234      2.00000
     49      -3.8063      2.00000
     50      -3.7922      2.00000
     51      -3.7892      2.00000
     52      -3.7591      2.00000
     53      -3.7494      2.00000
     54      -3.7021      2.00000
     55      -3.6954      2.00000
     56      -3.6919      2.00000
     57      -3.6618      2.00000
     58      -3.6588      2.00000
     59      -3.6453      2.00000
     60      -3.6277      2.00000
     61      -3.5818      2.00000
     62      -3.5368      2.00000
     63      -3.5129      2.00000
     64      -3.5007      2.00000
     65      -3.4651      2.00000
     66      -3.4397      2.00000
     67      -3.4195      2.00000
     68      -3.3989      2.00000
     69      -3.3896      2.00000
     70      -3.3840      2.00000
     71      -3.3158      2.00000
     72      -3.2929      2.00000
     73      -3.2892      2.00000
     74      -3.2619      2.00000
     75      -3.2284      2.00000
     76      -3.2050      2.00000
     77      -3.1989      2.00000
     78      -3.1890      2.00000
     79      -3.1756      2.00000
     80      -3.0780      2.00000
     81      -2.9566      2.00000
     82      -2.9501      2.00000
     83      -2.9452      2.00000
     84      -2.9404      2.00000
     85      -2.8812      2.00000
     86      -2.7598      2.00000
     87      -2.3546      2.00000
     88      -2.0728      2.00000
     89      -1.7903      2.00000
     90      -1.4638      1.52438
     91      -0.6958     -0.00000
     92      -0.2628     -0.00000
     93       0.5085     -0.00000
     94       0.9506     -0.00000
     95       1.8408      0.00000
     96       2.3166      0.00000
     97       2.6229      0.00000
     98       3.1488      0.00000
     99       3.8534      0.00000
    100       3.9632      0.00000
    101       4.1321      0.00000
    102       4.6421      0.00000
    103       4.7626      0.00000
    104       4.8239      0.00000
    105       4.9570      0.00000
    106       5.2417      0.00000
    107       5.4338      0.00000
    108       5.4460      0.00000

 k-point    21 :       0.4583    0.4583    0.0000
  band No.  band energies     occupation 
      1      -7.8069      2.00000
      2      -7.4265      2.00000
      3      -7.4265      2.00000
      4      -7.0823      2.00000
      5      -6.4723      2.00000
      6      -6.2006      2.00000
      7      -6.2006      2.00000
      8      -5.9568      2.00000
      9      -5.2747      2.00000
     10      -5.2641      2.00000
     11      -5.2541      2.00000
     12      -5.2541      2.00000
     13      -5.2455      2.00000
     14      -5.2367      2.00000
     15      -5.2324      2.00000
     16      -5.2324      2.00000
     17      -5.0834      2.00000
     18      -5.0048      2.00000
     19      -5.0035      2.00000
     20      -5.0035      2.00000
     21      -4.9345      2.00000
     22      -4.8891      2.00000
     23      -4.8891      2.00000
     24      -4.8288      2.00000
     25      -4.8110      2.00000
     26      -4.7739      2.00000
     27      -4.7739      2.00000
     28      -4.7162      2.00000
     29      -4.6786      2.00000
     30      -4.6471      2.00000
     31      -4.6471      2.00000
     32      -4.6328      2.00000
     33      -4.4769      2.00000
     34      -4.4106      2.00000
     35      -4.4106      2.00000
     36      -4.3600      2.00000
     37      -4.3013      2.00000
     38      -4.2669      2.00000
     39      -4.2669      2.00000
     40      -4.2129      2.00000
     41      -3.9078      2.00000
     42      -3.8867      2.00000
     43      -3.8702      2.00000
     44      -3.8503      2.00000
     45      -3.8503      2.00000
     46      -3.8398      2.00000
     47      -3.8398      2.00000
     48      -3.8073      2.00000
     49      -3.7998      2.00000
     50      -3.7998      2.00000
     51      -3.7650      2.00000
     52      -3.7650      2.00000
     53      -3.7547      2.00000
     54      -3.7514      2.00000
     55      -3.7086      2.00000
     56      -3.6906      2.00000
     57      -3.6755      2.00000
     58      -3.6523      2.00000
     59      -3.6523      2.00000
     60      -3.6401      2.00000
     61      -3.6175      2.00000
     62      -3.6090      2.00000
     63      -3.5875      2.00000
     64      -3.5875      2.00000
     65      -3.4776      2.00000
     66      -3.4722      2.00000
     67      -3.4722      2.00000
     68      -3.4482      2.00000
     69      -3.4360      2.00000
     70      -3.4360      2.00000
     71      -3.4340      2.00000
     72      -3.4125      2.00000
     73      -3.2544      2.00000
     74      -3.2476      2.00000
     75      -3.2381      2.00000
     76      -3.2350      2.00000
     77      -3.2350      2.00000
     78      -3.2171      2.00000
     79      -3.2171      2.00000
     80      -3.1611      2.00000
     81      -2.9548      2.00000
     82      -2.9548      2.00000
     83      -2.9539      2.00000
     84      -2.9525      2.00000
     85      -2.7558      2.00000
     86      -2.5897      2.00000
     87      -2.5897      2.00000
     88      -2.3698      2.00000
     89      -1.4840      1.77292
     90      -1.1232     -0.00012
     91      -1.1232     -0.00012
     92      -0.7263     -0.00000
     93       0.8996     -0.00000
     94       1.3481      0.00000
     95       1.3481      0.00000
     96       1.8061      0.00000
     97       3.0728      0.00000
     98       3.5871      0.00000
     99       3.5871      0.00000
    100       4.0938      0.00000
    101       4.7568      0.00000
    102       4.9846      0.00000
    103       4.9846      0.00000
    104       5.1429      0.00000
    105       5.3559      0.00000
    106       5.6040      0.00000
    107       5.6040      0.00000
    108       5.8323      0.00000


--------------------------------------------------------------------------------------------------------


 soft charge-density along one line, spin component           1
         0         1         2         3         4         5         6         7         8         9
 total charge-density along one line
 
 pseudopotential strength for first ion, spin component:           1
 -9.123  -0.000   0.000  -0.000  -0.000  -0.027   0.000  -0.000
 -0.000  -9.116   0.000   0.000   0.000   0.000  -0.035  -0.000
  0.000   0.000  -9.102   0.000  -0.000  -0.000  -0.000  -0.046
 -0.000   0.000   0.000  -9.116  -0.000   0.000  -0.000  -0.000
 -0.000   0.000  -0.000  -0.000  -9.145   0.000  -0.000   0.000
 -0.027   0.000  -0.000   0.000   0.000   7.013  -0.000   0.000
  0.000  -0.035  -0.000  -0.000  -0.000  -0.000   7.019  -0.000
 -0.000  -0.000  -0.046  -0.000   0.000   0.000  -0.000   7.028
  0.000  -0.000  -0.000  -0.035   0.000  -0.000   0.000  -0.000
  0.000  -0.000   0.000   0.000  -0.011  -0.000   0.000  -0.000
  0.000   0.000  -0.006   0.000  -0.000   0.000   0.000   0.002
  0.000   0.000  -0.010   0.000  -0.000   0.000   0.000   0.004
  0.000  -0.012   0.000  -0.000   0.000   0.000   0.010   0.000
 -0.000   0.000  -0.014   0.000   0.000  -0.000   0.000   0.011
  0.000  -0.000   0.000  -0.012  -0.000   0.000  -0.000   0.000
 -0.000  -0.014  -0.000   0.000  -0.000   0.000   0.012   0.000
  0.000  -0.000  -0.016  -0.000  -0.000  -0.000   0.000   0.012
 -0.000   0.000  -0.000  -0.014   0.000   0.000  -0.000   0.000
 total augmentation occupancy for first ion, spin component:           1
  1.928   0.000   0.000  -0.000   0.000  -0.032   0.000  -0.000  -0.000   0.000  -0.000  -0.000   0.000   0.000   0.000   0.000
  0.000   1.926   0.000  -0.000  -0.000  -0.000  -0.024   0.000  -0.000   0.000  -0.000   0.000   0.031   0.000   0.000  -0.016
 -0.000   0.000   1.940   0.000  -0.000   0.000   0.000  -0.034   0.000   0.000   0.004   0.011   0.000   0.042   0.000   0.000
 -0.000  -0.000   0.000   1.926   0.000   0.000  -0.000   0.000  -0.024  -0.000   0.000  -0.000   0.000   0.000   0.031  -0.000
 -0.000  -0.000  -0.000   0.000   1.909   0.000  -0.000   0.000   0.000  -0.005   0.000  -0.000   0.000  -0.000  -0.000  -0.000
 -0.032  -0.000  -0.000   0.000  -0.000   0.011  -0.000   0.000   0.000  -0.000   0.000   0.000  -0.000   0.000   0.000   0.000
  0.000  -0.024   0.000   0.000  -0.000  -0.000   0.009   0.000   0.000  -0.000  -0.000  -0.000   0.021   0.000  -0.000  -0.001
 -0.000   0.000  -0.034   0.000   0.000  -0.000   0.000   0.010   0.000   0.000  -0.031   0.001   0.000   0.017   0.000  -0.000
 -0.000   0.000   0.000  -0.024   0.000   0.000   0.000   0.000   0.009   0.000   0.000   0.000  -0.000   0.000   0.021   0.000
  0.000   0.000   0.000  -0.000  -0.005  -0.000  -0.000   0.000   0.000   0.012  -0.000  -0.000   0.000  -0.000  -0.000   0.000
  0.000  -0.000   0.004   0.000  -0.000   0.000  -0.000  -0.031   0.000  -0.000   1.626  -0.124   0.000   0.159   0.000   0.000
  0.000   0.000   0.011  -0.000   0.000  -0.000  -0.000   0.001   0.000  -0.000  -0.124   0.015   0.000  -0.024   0.000   0.000
  0.000   0.031   0.000  -0.000   0.000  -0.000   0.021   0.000  -0.000   0.000   0.000   0.000   0.175   0.000  -0.000  -0.011
  0.000   0.000   0.042   0.000  -0.000   0.000   0.000   0.017   0.000  -0.000   0.159  -0.024   0.000   0.109   0.000   0.000
  0.000  -0.000   0.000   0.031  -0.000   0.000   0.000   0.000   0.021  -0.000   0.000   0.000   0.000   0.000   0.175   0.000
  0.000  -0.016   0.000  -0.000  -0.000   0.000  -0.001  -0.000  -0.000   0.000   0.000   0.000  -0.011   0.000   0.000   0.001
 -0.000  -0.000  -0.019  -0.000   0.000   0.000  -0.000  -0.001   0.000   0.000  -0.022   0.002   0.000  -0.008   0.000   0.000
 -0.000  -0.000   0.000  -0.016   0.000  -0.000  -0.000   0.000  -0.001   0.000   0.000   0.000   0.000   0.000  -0.011   0.000


------------------------ aborting loop because EDIFF is reached ----------------------------------------


    CHARGE:  cpu time    1.6552: real time    1.6568
    FORLOC:  cpu time    0.0317: real time    0.0317
    FORNL :  cpu time   10.2576: real time   10.2692
    STRESS:  cpu time   16.8820: real time   16.9183
    FORCOR:  cpu time    0.2383: real time    0.2438
    FORHAR:  cpu time    0.0718: real time    0.0733
    MIXING:  cpu time    0.0061: real time    0.0061
    OFIELD:  cpu time    0.0001: real time    0.0001

  FORCE on cell =-STRESS in cart. coord.  units (eV):
  Direction    XX          YY          ZZ          XY          YZ          ZX
  --------------------------------------------------------------------------------------
  Alpha Z   248.24730   248.24730   248.24730
  Ewald  136586.79497136586.79497************     0.00000    -0.00000    -0.00000
  Hartree142119.79559142119.79559************    -0.00000    -0.00000    -0.00000
  E(xc)   -1026.87939 -1026.87939 -1028.81167     0.00000    -0.00000    -0.00000
  Local  ************************284516.56585    -0.00000     0.00000     0.00000
  n-local  -347.94366  -366.58851  -360.16034    -3.07980    -0.00000     0.00000
  augment  1510.58775  1510.58775  1516.34225     0.00000     0.00004     0.00004
  Kinetic  1427.96466  1433.52084  1440.25725    -3.32640    -0.00000    -0.00000
  Fock        0.00000     0.00000     0.00000     0.00000     0.00000     0.00000
  -------------------------------------------------------------------------------------
  Total      -6.67387    -6.67387    -2.19832     0.00000    -0.00000     0.00000
  in kB     -14.17820   -14.17820    -4.67019     0.00000    -0.00000     0.00000
  external pressure =      -11.01 kB  Pullay stress =        0.00 kB


 VOLUME and BASIS-vectors are now :
 -----------------------------------------------------------------------------
  energy-cutoff  :      380.00
  volume of cell :      754.17
      direct lattice vectors                 reciprocal lattice vectors
     5.147737367  0.000000000  0.000000000     0.194260105  0.000000000  0.000000000
     0.000000000  5.147737367  0.000000000     0.000000000  0.194260105  0.000000000
     0.000000000  0.000000000 28.460000000     0.000000000  0.000000000  0.035137034

  length of vectors
     5.147737367  5.147737367 28.460000000     0.194260105  0.194260105  0.035137034


 FORCES acting on ions
    electron-ion (+dipol)            ewald-force                    non-local-force                 convergence-correction
 -----------------------------------------------------------------------------------------------
   0.403E-12 0.432E-12 0.363E+04   -.149E-13 -.133E-14 -.363E+04   -.442E-22 -.107E-21 -.367E+01   -.673E-12 -.104E-11 -.102E-02
   0.145E-11 0.450E-11 0.363E+04   0.278E-13 -.133E-14 -.363E+04   0.731E-23 -.537E-22 -.367E+01   0.623E-12 -.269E-11 -.102E-02
   0.391E-12 0.177E-11 0.363E+04   -.575E-13 -.158E-13 -.363E+04   -.347E-22 0.872E-22 -.367E+01   -.939E-12 0.130E-11 -.102E-02
   0.145E-11 0.115E-11 0.363E+04   -.149E-13 -.158E-13 -.363E+04   0.180E-22 0.321E-22 -.367E+01   0.902E-12 0.119E-11 -.102E-02
   -.722E-13 -.139E-13 0.124E+04   0.147E-12 0.129E-13 -.124E+04   -.103E-22 -.103E-22 -.564E+00   0.624E-12 0.304E-12 0.645E-03
   0.960E-12 -.419E-13 0.124E+04   0.190E-12 0.129E-13 -.124E+04   0.229E-23 0.100E-22 -.564E+00   -.585E-12 0.536E-13 0.645E-03
   -.879E-13 0.111E-11 0.124E+04   0.105E-12 0.272E-13 -.124E+04   0.120E-22 0.315E-23 -.564E+00   0.747E-12 -.187E-12 0.645E-03
   0.957E-12 0.917E-12 0.124E+04   0.147E-12 0.272E-13 -.124E+04   -.144E-22 -.182E-23 -.564E+00   -.717E-12 0.251E-12 0.645E-03
   0.324E-12 -.677E-12 -.123E+04   -.426E-13 -.142E-13 0.123E+04   0.728E-23 -.206E-22 0.350E+00   -.554E-12 -.297E-12 0.154E-01
   0.135E-11 0.415E-11 -.123E+04   0.000E+00 -.142E-13 0.123E+04   -.126E-22 -.254E-22 0.350E+00   0.555E-12 0.365E-12 0.154E-01
   0.330E-12 0.517E-12 -.123E+04   -.853E-13 -.284E-13 0.123E+04   0.111E-22 0.344E-22 0.350E+00   -.386E-12 0.502E-12 0.154E-01
   0.135E-11 0.296E-11 -.123E+04   -.426E-13 -.284E-13 0.123E+04   -.103E-22 0.117E-22 0.350E+00   0.381E-12 -.849E-13 0.154E-01
   -.459E-13 -.163E-13 -.364E+04   -.849E-13 -.143E-13 0.363E+04   -.160E-22 -.102E-22 0.379E+01   -.780E-12 -.458E-12 -.112E-01
   0.921E-12 -.110E-12 -.364E+04   -.358E-13 -.148E-13 0.363E+04   -.122E-22 -.145E-22 0.379E+01   0.821E-12 -.151E-11 -.112E-01
   -.153E-12 0.899E-12 -.364E+04   -.135E-12 -.240E-13 0.363E+04   0.727E-23 0.258E-23 0.379E+01   -.687E-12 0.474E-12 -.112E-01
   0.919E-12 0.405E-12 -.364E+04   -.858E-13 -.245E-13 0.363E+04   -.173E-22 -.157E-22 0.379E+01   0.729E-12 0.125E-11 -.112E-01
 -----------------------------------------------------------------------------------------------
   0.104E-10 0.180E-10 0.344E+00   0.177E-13 -.117E-12 0.909E-12   -.107E-21 -.782E-22 -.358E+00   0.603E-13 -.578E-12 0.153E-01
 
 
 POSITION                                       TOTAL-FORCE (eV/Angst)
 -----------------------------------------------------------------------------------
      1.28693      1.28693      0.11600        -0.000000      0.000000      0.203582
      3.86080      1.28693      0.11600         0.000000      0.000000      0.203582
      1.28693      3.86080      0.11600        -0.000000     -0.000000      0.203582
      3.86080      3.86080      0.11600         0.000000      0.000000      0.203582
      0.00000      0.00000      1.93600         0.000000     -0.000000     -0.203474
      2.57387      0.00000      1.93600        -0.000000     -0.000000     -0.203474
      0.00000      2.57387      1.93600        -0.000000      0.000000     -0.203474
      2.57387      2.57387      1.93600        -0.000000     -0.000000     -0.203474
      1.28693      1.28693      3.76362         0.000000     -0.000000     -0.000607
      3.86080      1.28693      3.76362        -0.000000      0.000000     -0.000607
      1.28693      3.86080      3.76362        -0.000000      0.000000     -0.000607
      3.86080      3.86080      3.76362        -0.000000     -0.000000     -0.000607
      0.00000      0.00000      5.52679         0.000000     -0.000000      0.000499
      2.57387     -0.00000      5.52679         0.000000      0.000000      0.000499
     -0.00000      2.57387      5.52679         0.000000     -0.000000      0.000499
      2.57387      2.57387      5.52679         0.000000     -0.000000      0.000499
 -----------------------------------------------------------------------------------
    total drift:                                0.000000      0.000000      0.001382


--------------------------------------------------------------------------------------------------------



  FREE ENERGIE OF THE ION-ELECTRON SYSTEM (eV)
  ---------------------------------------------------
  free  energy   TOTEN  =       -54.85705333 eV

  energy  without entropy=      -54.85683417  energy(sigma->0) =      -54.85698028
 
 d Force = 0.2183908E-05[-0.125E-05, 0.562E-05]  d Energy = 0.2707347E-05-0.523E-06
 d Force =-0.1934098E+01[-0.193E+01,-0.193E+01]  d Ewald  =-0.1934098E+01 0.148E-07


--------------------------------------------------------------------------------------------------------


    POTLOK:  cpu time    0.3737: real time    0.3822


--------------------------------------------------------------------------------------------------------


 stress matrix after NEB project (eV)
     -6.67387      0.00000      0.00000
      0.00000     -6.67387      0.00000
      0.00000     -0.00000     -2.19832
  FORCES: max atom, RMS     0.000607    0.000393
  FORCE total and by dimension    0.001572    0.000607
  Stress total and by dimension    9.690914    6.673874


--------------------------------------------------------------------------------------------------------


  
 reached required accuracy - stopping structural energy minimisation
     LOOP+:  cpu time  129.7932: real time  129.9022
    4ORBIT:  cpu time    0.0001: real time    0.0017

 total amount of memory used by VASP MPI-rank0   297893. kBytes
=======================================================================

   base      :      30000. kBytes
   nonl-proj :      41813. kBytes
   fftplans  :      73626. kBytes
   grid      :      33944. kBytes
   one-center:        248. kBytes
   wavefun   :     118262. kBytes
 
  
  
 General timing and accounting informations for this job:
 ========================================================
  
                  Total CPU time used (sec):     3662.710
                            User time (sec):     3658.323
                          System time (sec):        4.387
                         Elapsed time (sec):     3669.399
  
                   Maximum memory used (kb):      453272.
                   Average memory used (kb):           0.
  
                          Minor page faults:       327273
                          Major page faults:          317
                 Voluntary context switches:        54963
