  17  17   0   0
  0.5496246E+02  0.5147737E-09  0.5147737E-09  0.3526000E-08  0.0000000E+00
  1.000000000000000E-004
  CAR 
 unknown system                          
      5.40104973    -10.99676401  301     -1.51256254      1.00000000
    -10.997  0.0000E+00  0.0000E+00
    -10.942  0.0000E+00  0.0000E+00
    -10.887  0.0000E+00  0.0000E+00
    -10.833 -0.1908E-31 -0.1043E-32
    -10.778 -0.1232E-27 -0.6736E-29
    -10.723 -0.4355E-24 -0.2381E-25
    -10.669 -0.8420E-21 -0.4605E-22
    -10.614 -0.8895E-18 -0.4867E-19
    -10.559 -0.4965E-15 -0.2719E-16
    -10.505 -0.1549E-12 -0.8492E-14
    -10.450 -0.2614E-10 -0.1438E-11
    -10.396 -0.2377E-08 -0.1314E-09
    -10.341 -0.1153E-06 -0.6432E-08
    -10.286 -0.2931E-05 -0.1666E-06
    -10.232 -0.3767E-04 -0.2225E-05
    -10.177 -0.2225E-03 -0.1439E-04
    -10.122 -0.3831E-03 -0.3533E-04
    -10.068  0.1330E-02  0.3740E-04
    -10.013  0.6002E-02  0.3654E-03
     -9.958  0.7965E-02  0.8008E-03
     -9.904  0.3947E-02  0.1017E-02
     -9.849  0.2207E-03  0.1029E-02
     -9.794 -0.3885E-03  0.1007E-02
     -9.740 -0.1195E-03  0.1001E-02
     -9.685 -0.1443E-04  0.1000E-02
     -9.630 -0.1064E-05  0.1000E-02
     -9.576 -0.5679E-05  0.9997E-03
     -9.521 -0.7331E-04  0.9957E-03
     -9.466 -0.4379E-03  0.9717E-03
     -9.412 -0.7732E-03  0.9295E-03
     -9.357  0.2575E-02  0.1070E-02
     -9.302  0.1189E-01  0.1720E-02
     -9.248  0.1597E-01  0.2593E-02
     -9.193  0.8021E-02  0.3031E-02
     -9.138  0.4898E-03  0.3058E-02
     -9.084 -0.7816E-03  0.3015E-02
     -9.029 -0.2441E-03  0.3002E-02
     -8.974 -0.2977E-04  0.3000E-02
     -8.920 -0.2418E-05  0.3000E-02
     -8.865 -0.1201E-04  0.2999E-02
     -8.810 -0.1049E-03  0.2994E-02
     -8.756 -0.3731E-03  0.2973E-02
     -8.701  0.7530E-04  0.2977E-02
     -8.646  0.3470E-02  0.3167E-02
     -8.592  0.7463E-02  0.3575E-02
     -8.537  0.6399E-02  0.3925E-02
     -8.482  0.5083E-02  0.4203E-02
     -8.428  0.7437E-02  0.4609E-02
     -8.373  0.6178E-02  0.4947E-02
     -8.318  0.1626E-02  0.5036E-02
     -8.264 -0.3719E-03  0.5015E-02
     -8.209 -0.4418E-03  0.4991E-02
     -8.154 -0.7651E-03  0.4949E-02
     -8.100  0.4137E-05  0.4949E-02
     -8.045  0.6564E-02  0.5308E-02
     -7.990  0.1501E-01  0.6129E-02
     -7.936  0.1234E-01  0.6803E-02
     -7.881  0.5901E-02  0.7126E-02
     -7.827  0.1082E-01  0.7717E-02
     -7.772  0.1555E-01  0.8567E-02
     -7.717  0.8350E-02  0.9024E-02
     -7.663  0.6008E-03  0.9056E-02
     -7.608 -0.1146E-02  0.8994E-02
     -7.553 -0.1007E-02  0.8939E-02
     -7.499  0.1638E-02  0.9028E-02
     -7.444  0.9954E-02  0.9572E-02
     -7.389  0.1553E-01  0.1042E-01
     -7.335  0.9497E-02  0.1094E-01
     -7.280  0.3157E-02  0.1111E-01
     -7.225  0.5550E-02  0.1142E-01
     -7.171  0.7505E-02  0.1183E-01
     -7.116  0.3522E-02  0.1202E-01
     -7.061 -0.2317E-03  0.1201E-01
     -7.007 -0.1197E-02  0.1194E-01
     -6.952  0.1260E-02  0.1201E-01
     -6.897  0.9848E-02  0.1255E-01
     -6.843  0.1574E-01  0.1341E-01
     -6.788  0.9250E-02  0.1391E-01
     -6.733  0.3751E-02  0.1412E-01
     -6.679  0.1176E-01  0.1476E-01
     -6.624  0.2418E-01  0.1608E-01
     -6.569  0.2383E-01  0.1739E-01
     -6.515  0.1022E-01  0.1794E-01
     -6.460  0.2845E-02  0.1810E-01
     -6.405  0.1285E-01  0.1880E-01
     -6.351  0.3355E-01  0.2064E-01
     -6.296  0.4529E-01  0.2311E-01
     -6.241  0.3439E-01  0.2499E-01
     -6.187  0.1505E-01  0.2581E-01
     -6.132  0.1326E-01  0.2654E-01
     -6.077  0.3735E-01  0.2858E-01
     -6.023  0.6563E-01  0.3217E-01
     -5.968  0.6869E-01  0.3592E-01
     -5.913  0.4431E-01  0.3834E-01
     -5.859  0.2793E-01  0.3987E-01
     -5.804  0.3691E-01  0.4189E-01
     -5.749  0.4622E-01  0.4442E-01
     -5.695  0.4912E-01  0.4710E-01
     -5.640  0.6158E-01  0.5047E-01
     -5.585  0.8860E-01  0.5531E-01
     -5.531  0.1204E+00  0.6189E-01
     -5.476  0.1274E+00  0.6886E-01
     -5.422  0.1049E+00  0.7459E-01
     -5.367  0.8899E-01  0.7946E-01
     -5.312  0.8022E-01  0.8384E-01
     -5.258  0.6537E-01  0.8742E-01
     -5.203  0.5764E-01  0.9057E-01
     -5.148  0.5186E-01  0.9340E-01
     -5.094  0.4609E-01  0.9592E-01
     -5.039  0.6294E-01  0.9936E-01
     -4.984  0.8605E-01  0.1041E+00
     -4.930  0.8569E-01  0.1087E+00
     -4.875  0.8571E-01  0.1134E+00
     -4.820  0.8196E-01  0.1179E+00
     -4.766  0.6029E-01  0.1212E+00
     -4.711  0.6599E-01  0.1248E+00
     -4.656  0.9784E-01  0.1302E+00
     -4.602  0.1085E+00  0.1361E+00
     -4.547  0.9796E-01  0.1414E+00
     -4.492  0.9242E-01  0.1465E+00
     -4.438  0.9806E-01  0.1519E+00
     -4.383  0.1116E+00  0.1580E+00
     -4.328  0.1411E+00  0.1657E+00
     -4.274  0.1633E+00  0.1746E+00
     -4.219  0.1463E+00  0.1826E+00
     -4.164  0.1083E+00  0.1885E+00
     -4.110  0.7990E-01  0.1929E+00
     -4.055  0.7814E-01  0.1972E+00
     -4.000  0.1021E+00  0.2027E+00
     -3.946  0.1205E+00  0.2093E+00
     -3.891  0.1217E+00  0.2160E+00
     -3.836  0.1316E+00  0.2232E+00
     -3.782  0.1367E+00  0.2306E+00
     -3.727  0.1241E+00  0.2374E+00
     -3.672  0.1249E+00  0.2443E+00
     -3.618  0.1320E+00  0.2515E+00
     -3.563  0.1315E+00  0.2587E+00
     -3.508  0.1520E+00  0.2670E+00
     -3.454  0.1703E+00  0.2763E+00
     -3.399  0.1441E+00  0.2841E+00
     -3.344  0.1324E+00  0.2914E+00
     -3.290  0.1710E+00  0.3007E+00
     -3.235  0.1923E+00  0.3112E+00
     -3.180  0.1760E+00  0.3209E+00
     -3.126  0.1699E+00  0.3302E+00
     -3.071  0.1760E+00  0.3398E+00
     -3.016  0.1556E+00  0.3483E+00
     -2.962  0.9513E-01  0.3535E+00
     -2.907  0.3851E-01  0.3556E+00
     -2.853  0.1714E-01  0.3565E+00
     -2.798  0.1447E-01  0.3573E+00
     -2.743  0.1774E-01  0.3583E+00
     -2.689  0.1815E-01  0.3593E+00
     -2.634  0.1338E-01  0.3600E+00
     -2.579  0.1113E-01  0.3606E+00
     -2.525  0.1361E-01  0.3614E+00
     -2.470  0.1573E-01  0.3622E+00
     -2.415  0.1375E-01  0.3630E+00
     -2.361  0.1414E-01  0.3637E+00
     -2.306  0.1944E-01  0.3648E+00
     -2.251  0.2750E-01  0.3663E+00
     -2.197  0.3359E-01  0.3681E+00
     -2.142  0.2602E-01  0.3696E+00
     -2.087  0.9482E-02  0.3701E+00
     -2.033 -0.3162E-03  0.3701E+00
     -1.978 -0.1499E-02  0.3700E+00
     -1.923  0.1273E-02  0.3701E+00
     -1.869  0.6306E-02  0.3704E+00
     -1.814  0.7757E-02  0.3708E+00
     -1.759  0.3112E-02  0.3710E+00
     -1.705 -0.1078E-02  0.3709E+00
     -1.650  0.7153E-03  0.3710E+00
     -1.595  0.1201E-01  0.3716E+00
     -1.541  0.2704E-01  0.3731E+00
     -1.486  0.3014E-01  0.3748E+00
     -1.431  0.1826E-01  0.3758E+00
     -1.377  0.1066E-01  0.3763E+00
     -1.322  0.1813E-01  0.3773E+00
     -1.267  0.2166E-01  0.3785E+00
     -1.213  0.1398E-01  0.3793E+00
     -1.158  0.8633E-02  0.3797E+00
     -1.103  0.8002E-02  0.3802E+00
     -1.049  0.8438E-02  0.3806E+00
     -0.994  0.5811E-02  0.3810E+00
     -0.939  0.1315E-02  0.3810E+00
     -0.885 -0.6457E-03  0.3810E+00
     -0.830 -0.1006E-02  0.3809E+00
     -0.775  0.5173E-03  0.3810E+00
     -0.721  0.7659E-02  0.3814E+00
     -0.666  0.1502E-01  0.3822E+00
     -0.611  0.1432E-01  0.3830E+00
     -0.557  0.1415E-01  0.3838E+00
     -0.502  0.1492E-01  0.3846E+00
     -0.448  0.7607E-02  0.3850E+00
     -0.393 -0.2060E-03  0.3850E+00
     -0.338 -0.2274E-03  0.3850E+00
     -0.284  0.8811E-02  0.3855E+00
     -0.229  0.1919E-01  0.3865E+00
     -0.174  0.1801E-01  0.3875E+00
     -0.120  0.1376E-01  0.3882E+00
     -0.065  0.1977E-01  0.3893E+00
     -0.010  0.2432E-01  0.3907E+00
      0.044  0.2365E-01  0.3919E+00
      0.099  0.2586E-01  0.3934E+00
      0.154  0.2186E-01  0.3946E+00
      0.208  0.9003E-02  0.3950E+00
      0.263 -0.3482E-03  0.3950E+00
      0.318 -0.1318E-02  0.3950E+00
      0.372  0.5204E-02  0.3952E+00
      0.427  0.1516E-01  0.3961E+00
      0.482  0.1754E-01  0.3970E+00
      0.536  0.1213E-01  0.3977E+00
      0.591  0.5527E-02  0.3980E+00
      0.646  0.5597E-03  0.3980E+00
      0.700 -0.1216E-02  0.3980E+00
      0.755  0.9750E-03  0.3980E+00
      0.810  0.8689E-02  0.3985E+00
      0.864  0.1469E-01  0.3993E+00
      0.919  0.1163E-01  0.3999E+00
      0.974  0.1103E-01  0.4005E+00
      1.028  0.1499E-01  0.4013E+00
      1.083  0.1185E-01  0.4020E+00
      1.138  0.8833E-02  0.4025E+00
      1.192  0.1127E-01  0.4031E+00
      1.247  0.1269E-01  0.4038E+00
      1.302  0.1461E-01  0.4046E+00
      1.356  0.1567E-01  0.4054E+00
      1.411  0.1294E-01  0.4061E+00
      1.466  0.1425E-01  0.4069E+00
      1.520  0.1348E-01  0.4077E+00
      1.575  0.5458E-02  0.4080E+00
      1.630  0.6977E-02  0.4083E+00
      1.684  0.1982E-01  0.4094E+00
      1.739  0.2068E-01  0.4106E+00
      1.794  0.8475E-02  0.4110E+00
      1.848  0.7442E-02  0.4114E+00
      1.903  0.1944E-01  0.4125E+00
      1.958  0.2853E-01  0.4140E+00
      2.012  0.2520E-01  0.4154E+00
      2.067  0.1124E-01  0.4160E+00
      2.121  0.3399E-03  0.4161E+00
      2.176 -0.1885E-02  0.4160E+00
      2.231  0.2149E-02  0.4161E+00
      2.285  0.1149E-01  0.4167E+00
      2.340  0.1524E-01  0.4175E+00
      2.395  0.7005E-02  0.4179E+00
      2.449  0.3309E-02  0.4181E+00
      2.504  0.1502E-01  0.4189E+00
      2.559  0.2549E-01  0.4203E+00
      2.613  0.2004E-01  0.4214E+00
      2.668  0.8564E-02  0.4219E+00
      2.723  0.7815E-03  0.4219E+00
      2.777  0.3437E-02  0.4221E+00
      2.832  0.1981E-01  0.4232E+00
      2.887  0.3428E-01  0.4251E+00
      2.941  0.3506E-01  0.4270E+00
      2.996  0.2661E-01  0.4284E+00
      3.051  0.1135E-01  0.4291E+00
      3.105 -0.5737E-04  0.4291E+00
      3.160 -0.1610E-02  0.4290E+00
      3.215  0.3371E-02  0.4291E+00
      3.269  0.1463E-01  0.4299E+00
      3.324  0.2862E-01  0.4315E+00
      3.379  0.2925E-01  0.4331E+00
      3.433  0.1381E-01  0.4339E+00
      3.488  0.1042E-01  0.4344E+00
      3.543  0.2861E-01  0.4360E+00
      3.597  0.4292E-01  0.4383E+00
      3.652  0.3997E-01  0.4405E+00
      3.707  0.2296E-01  0.4418E+00
      3.761  0.7148E-02  0.4422E+00
      3.816  0.9032E-02  0.4427E+00
      3.871  0.1477E-01  0.4435E+00
      3.925  0.9454E-02  0.4440E+00
      3.980  0.5172E-02  0.4443E+00
      4.035  0.6831E-02  0.4446E+00
      4.089  0.6177E-02  0.4450E+00
      4.144  0.6155E-02  0.4453E+00
      4.199  0.7225E-02  0.4457E+00
      4.253  0.4247E-02  0.4460E+00
      4.308  0.4274E-02  0.4462E+00
      4.363  0.1134E-01  0.4468E+00
      4.417  0.1421E-01  0.4476E+00
      4.472  0.7634E-02  0.4480E+00
      4.526  0.9796E-03  0.4481E+00
      4.581 -0.6319E-03  0.4480E+00
      4.636 -0.2681E-03  0.4480E+00
      4.690 -0.4144E-04  0.4480E+00
      4.745 -0.3088E-05  0.4480E+00
      4.800 -0.1187E-06  0.4480E+00
      4.854 -0.2417E-08  0.4480E+00
      4.909 -0.2639E-10  0.4480E+00
      4.964 -0.1557E-12  0.4480E+00
      5.018 -0.4956E-15  0.4480E+00
      5.073  0.0000E+00  0.4480E+00
      5.128  0.0000E+00  0.4480E+00
      5.182  0.0000E+00  0.4480E+00
      5.237  0.0000E+00  0.4480E+00
      5.292  0.0000E+00  0.4480E+00
      5.346  0.0000E+00  0.4480E+00
      5.401  0.0000E+00  0.4480E+00
