       N       E                     dE             d eps       ncg     rms          rms(c)
DAV:   1     0.150666996740E+04    0.15067E+04   -0.62965E+04  1792   0.135E+03
DAV:   2     0.740674309210E+02   -0.14326E+04   -0.13786E+04  1800   0.365E+02
DAV:   3    -0.612101302795E+02   -0.13528E+03   -0.12319E+03  2040   0.161E+02
DAV:   4    -0.696049652505E+02   -0.83948E+01   -0.82696E+01  2288   0.479E+01
DAV:   5    -0.697966717730E+02   -0.19171E+00   -0.19130E+00  2240   0.641E+00    0.286E+01
DAV:   6    -0.631217943578E+02    0.66749E+01   -0.15495E+02  1984   0.128E+02    0.156E+01
DAV:   7    -0.570628224258E+02    0.60590E+01   -0.30407E+01  2160   0.822E+01    0.436E+00
DAV:   8    -0.572248952501E+02   -0.16207E+00   -0.60709E+00  2232   0.415E+01    0.272E+00
DAV:   9    -0.572469932040E+02   -0.22098E-01   -0.15690E+00  2280   0.198E+01    0.244E+00
DAV:  10    -0.572135506748E+02    0.33443E-01   -0.62706E-01  2152   0.199E+01    0.169E+00
DAV:  11    -0.571595294720E+02    0.54021E-01   -0.54445E-01  2552   0.167E+01    0.608E-01
DAV:  12    -0.571502068928E+02    0.93226E-02   -0.19058E-01  2672   0.708E+00    0.266E-01
DAV:  13    -0.571533221769E+02   -0.31153E-02   -0.57988E-02  2016   0.294E+00    0.216E-01
DAV:  14    -0.571534523287E+02   -0.13015E-03   -0.10851E-02  2192   0.178E+00    0.249E-01
DAV:  15    -0.571523983734E+02    0.10540E-02   -0.48617E-03  1952   0.105E+00    0.641E-02
DAV:  16    -0.571526144325E+02   -0.21606E-03   -0.23152E-03  2552   0.589E-01    0.119E-01
DAV:  17    -0.571525217304E+02    0.92702E-04   -0.25044E-03  2000   0.653E-01    0.628E-02
DAV:  18    -0.571526712430E+02   -0.14951E-03   -0.53649E-04  2184   0.292E-01    0.895E-02
DAV:  19    -0.571526836465E+02   -0.12403E-04   -0.74213E-04  1920   0.335E-01    0.165E-02
DAV:  20    -0.571529788781E+02   -0.29523E-03   -0.11371E-04  2312   0.154E-01    0.151E-02
DAV:  21    -0.571530961222E+02   -0.11724E-03   -0.26513E-05  2064   0.104E-01    0.947E-03
DAV:  22    -0.571532642762E+02   -0.16815E-03   -0.19382E-05  2336   0.574E-02    0.781E-03
DAV:  23    -0.571533821845E+02   -0.11791E-03   -0.76455E-06  2416   0.457E-02    0.619E-03
DAV:  24    -0.571534666691E+02   -0.84485E-04   -0.67531E-06  2344   0.376E-02    0.304E-03
DAV:  25    -0.571535275958E+02   -0.60927E-04   -0.44378E-06  2048   0.239E-02    0.626E-03
DAV:  26    -0.571535493139E+02   -0.21718E-04   -0.15436E-06  1976   0.178E-02    0.367E-03
DAV:  27    -0.571535621101E+02   -0.12796E-04   -0.18464E-06  1896   0.154E-02    0.197E-03
DAV:  28    -0.571535685207E+02   -0.64105E-05   -0.30347E-07  1360   0.844E-03    0.156E-03
DAV:  29    -0.571535786429E+02   -0.10122E-04   -0.16286E-07  1120   0.504E-03    0.166E-03
DAV:  30    -0.571535810233E+02   -0.23804E-05   -0.75672E-08  1248   0.386E-03    0.152E-03
DAV:  31    -0.571535831026E+02   -0.20794E-05   -0.47434E-08  1104   0.241E-03    0.146E-03
DAV:  32    -0.571535839545E+02   -0.85188E-06   -0.25177E-08  1136   0.179E-03    0.146E-03
DAV:  33    -0.571535846701E+02   -0.71557E-06   -0.19521E-08  1088   0.132E-03    0.147E-03
DAV:  34    -0.571535848287E+02   -0.15862E-06   -0.92565E-09  1184   0.112E-03    0.145E-03
DAV:  35    -0.571535849200E+02   -0.91277E-07   -0.76845E-09  1024   0.928E-04
   1 F= -.57153585E+02 E0= -.57148212E+02  d E =-.571536E+02
       N       E                     dE             d eps       ncg     rms          rms(c)
DAV:   1    -0.571669666265E+02   -0.13382E-01   -0.98994E-01  1840   0.293E+00    0.940E-02
DAV:   2    -0.571686953256E+02   -0.17287E-02   -0.18040E-02  2672   0.898E-01    0.855E-02
DAV:   3    -0.571686796962E+02    0.15629E-04   -0.59982E-04  2032   0.420E-01    0.566E-02
DAV:   4    -0.571686766386E+02    0.30577E-05   -0.23874E-04  2016   0.429E-01    0.418E-02
DAV:   5    -0.571686771443E+02   -0.50575E-06   -0.38067E-04  2304   0.488E-01    0.250E-02
DAV:   6    -0.571686586652E+02    0.18479E-04   -0.28503E-04  2624   0.410E-01    0.120E-02
DAV:   7    -0.571686558752E+02    0.27900E-05   -0.44234E-05  3096   0.143E-01    0.472E-03
DAV:   8    -0.571686563464E+02   -0.47117E-06   -0.91493E-06  2016   0.239E-02    0.430E-03
DAV:   9    -0.571686560010E+02    0.34536E-06   -0.12613E-06  2048   0.186E-02    0.295E-03
DAV:  10    -0.571686559274E+02    0.73593E-07   -0.16456E-06  2688   0.184E-02    0.234E-03
DAV:  11    -0.571686558406E+02    0.86871E-07   -0.30098E-07  1392   0.116E-02
   2 F= -.57168656E+02 E0= -.57163339E+02  d E =-.150709E-01
       N       E                     dE             d eps       ncg     rms          rms(c)
DAV:   1    -0.571849541886E+02   -0.16298E-01   -0.34656E+00  1848   0.550E+00    0.181E-01
DAV:   2    -0.571915601697E+02   -0.66060E-02   -0.69789E-02  2664   0.203E+00    0.199E-01
DAV:   3    -0.571913629903E+02    0.19718E-03   -0.34499E-03  2032   0.116E+00    0.114E-01
DAV:   4    -0.571913673913E+02   -0.44010E-05   -0.12761E-03  2080   0.811E-01    0.911E-02
DAV:   5    -0.571913925216E+02   -0.25130E-04   -0.22181E-03  2176   0.114E+00    0.662E-02
DAV:   6    -0.571912645168E+02    0.12800E-03   -0.11343E-03  2632   0.846E-01    0.181E-02
DAV:   7    -0.571912734701E+02   -0.89533E-05   -0.18980E-04  2632   0.213E-01    0.123E-02
DAV:   8    -0.571912735545E+02   -0.84467E-07   -0.41210E-05  2000   0.803E-02    0.100E-02
DAV:   9    -0.571912726483E+02    0.90628E-06   -0.11870E-05  2032   0.544E-02    0.567E-03
DAV:  10    -0.571912721705E+02    0.47771E-06   -0.57076E-06  3168   0.437E-02    0.252E-03
DAV:  11    -0.571912720433E+02    0.12723E-06   -0.15974E-06  2416   0.265E-02    0.160E-03
DAV:  12    -0.571912721391E+02   -0.95763E-07   -0.31410E-07  1360   0.954E-03
   3 F= -.57191272E+02 E0= -.57186057E+02  d E =-.226163E-01
       N       E                     dE             d eps       ncg     rms          rms(c)
DAV:   1    -0.571996474972E+02   -0.83755E-02   -0.61593E+00  1840   0.738E+00    0.235E-01
DAV:   2    -0.572120778568E+02   -0.12430E-01   -0.13178E-01  2688   0.291E+00    0.284E-01
DAV:   3    -0.572115303422E+02    0.54751E-03   -0.66465E-03  2016   0.168E+00    0.153E-01
DAV:   4    -0.572115147089E+02    0.15633E-04   -0.23366E-03  2352   0.103E+00    0.128E-01
DAV:   5    -0.572114856393E+02    0.29070E-04   -0.33926E-03  2112   0.141E+00    0.874E-02
DAV:   6    -0.572113067580E+02    0.17888E-03   -0.17749E-03  2640   0.103E+00    0.298E-02
DAV:   7    -0.572113285459E+02   -0.21788E-04   -0.40973E-04  2608   0.316E-01    0.190E-02
DAV:   8    -0.572113274645E+02    0.10814E-05   -0.10232E-04  1984   0.135E-01    0.168E-02
DAV:   9    -0.572113256051E+02    0.18594E-05   -0.31968E-05  2032   0.879E-02    0.920E-03
DAV:  10    -0.572113242293E+02    0.13759E-05   -0.13843E-05  2848   0.767E-02    0.362E-03
DAV:  11    -0.572113241358E+02    0.93474E-07   -0.35251E-06  2656   0.372E-02    0.173E-03
DAV:  12    -0.572113242855E+02   -0.14965E-06   -0.62616E-07  1824   0.133E-02    0.165E-03
DAV:  13    -0.572113244454E+02   -0.15996E-06   -0.19892E-07  1088   0.791E-03    0.139E-03
DAV:  14    -0.572113247887E+02   -0.34333E-06   -0.58788E-08  1072   0.379E-03    0.137E-03
DAV:  15    -0.572113250010E+02   -0.21223E-06   -0.24103E-08  1120   0.224E-03    0.135E-03
DAV:  16    -0.572113252635E+02   -0.26251E-06   -0.15943E-08  1072   0.175E-03    0.134E-03
DAV:  17    -0.572113255711E+02   -0.30766E-06   -0.11550E-08  1072   0.109E-03    0.133E-03
DAV:  18    -0.572113258583E+02   -0.28716E-06   -0.10168E-08  1088   0.104E-03    0.134E-03
DAV:  19    -0.572113259951E+02   -0.13684E-06   -0.63057E-09  1088   0.928E-04    0.133E-03
DAV:  20    -0.572113261129E+02   -0.11781E-06   -0.45419E-09  1056   0.495E-04    0.133E-03
DAV:  21    -0.572113261656E+02   -0.52612E-07   -0.21606E-09  1056   0.443E-04
   4 F= -.57211326E+02 E0= -.57206225E+02  d E =-.200540E-01
       N       E                     dE             d eps       ncg     rms          rms(c)
DAV:   1    -0.572093816067E+02    0.19445E-02   -0.74483E+00  1840   0.829E+00    0.224E-01
DAV:   2    -0.572242528289E+02   -0.14871E-01   -0.15623E-01  2704   0.294E+00    0.291E-01
DAV:   3    -0.572236169866E+02    0.63584E-03   -0.66570E-03  2048   0.163E+00    0.161E-01
DAV:   4    -0.572235427115E+02    0.74275E-04   -0.21475E-03  2416   0.999E-01    0.142E-01
DAV:   5    -0.572233909639E+02    0.15175E-03   -0.26062E-03  2240   0.120E+00    0.876E-02
DAV:   6    -0.572232561799E+02    0.13478E-03   -0.18301E-03  3024   0.931E-01    0.392E-02
DAV:   7    -0.572232625660E+02   -0.63862E-05   -0.46562E-04  2288   0.447E-01    0.212E-02
DAV:   8    -0.572232662616E+02   -0.36956E-05   -0.18514E-04  1968   0.188E-01    0.194E-02
DAV:   9    -0.572232636169E+02    0.26448E-05   -0.46041E-05  2016   0.963E-02    0.980E-03
DAV:  10    -0.572232618492E+02    0.17676E-05   -0.15986E-05  2528   0.860E-02    0.479E-03
DAV:  11    -0.572232615634E+02    0.28580E-06   -0.40843E-06  2336   0.399E-02    0.186E-03
DAV:  12    -0.572232615864E+02   -0.22937E-07   -0.84185E-07  2000   0.155E-02
   5 F= -.57223262E+02 E0= -.57218209E+02  d E =-.119354E-01
       N       E                     dE             d eps       ncg     rms          rms(c)
DAV:   1    -0.572198849771E+02    0.33766E-02   -0.54213E+00  1840   0.732E+00    0.153E-01
DAV:   2    -0.572299768302E+02   -0.10092E-01   -0.10504E-01  2704   0.216E+00    0.215E-01
DAV:   3    -0.572295732322E+02    0.40360E-03   -0.32944E-03  1952   0.121E+00    0.128E-01
DAV:   4    -0.572294980117E+02    0.75221E-04   -0.79724E-04  2480   0.548E-01    0.117E-01
DAV:   5    -0.572293874901E+02    0.11052E-03   -0.91351E-04  2112   0.711E-01    0.860E-02
DAV:   6    -0.572292313141E+02    0.15618E-03   -0.10555E-03  3344   0.724E-01    0.385E-02
DAV:   7    -0.572292221861E+02    0.91280E-05   -0.34077E-04  2544   0.346E-01    0.140E-02
DAV:   8    -0.572292265886E+02   -0.44025E-05   -0.79596E-05  2032   0.106E-01    0.133E-02
DAV:   9    -0.572292252067E+02    0.13819E-05   -0.14652E-05  1968   0.452E-02    0.900E-03
DAV:  10    -0.572292245614E+02    0.64532E-06   -0.15133E-05  2624   0.545E-02    0.477E-03
DAV:  11    -0.572292240989E+02    0.46246E-06   -0.27929E-06  2552   0.301E-02    0.321E-03
DAV:  12    -0.572292239661E+02    0.13287E-06   -0.54241E-07  1936   0.149E-02    0.209E-03
DAV:  13    -0.572292240162E+02   -0.50102E-07   -0.55528E-07  1568   0.104E-02
   6 F= -.57229224E+02 E0= -.57224071E+02  d E =-.596243E-02
       N       E                     dE             d eps       ncg     rms          rms(c)
DAV:   1    -0.572267585933E+02    0.24654E-02   -0.42577E+00  1856   0.647E+00    0.129E-01
DAV:   2    -0.572341481120E+02   -0.73895E-02   -0.76455E-02  2720   0.169E+00    0.176E-01
DAV:   3    -0.572338282717E+02    0.31984E-03   -0.16818E-03  1888   0.809E-01    0.111E-01
DAV:   4    -0.572337563631E+02    0.71909E-04   -0.42169E-04  2464   0.383E-01    0.100E-01
DAV:   5    -0.572336665410E+02    0.89822E-04   -0.69416E-04  2176   0.634E-01    0.728E-02
DAV:   6    -0.572335413681E+02    0.12517E-03   -0.10937E-03  3392   0.701E-01    0.347E-02
DAV:   7    -0.572335257633E+02    0.15605E-04   -0.28112E-04  2912   0.360E-01    0.124E-02
DAV:   8    -0.572335311480E+02   -0.53847E-05   -0.73351E-05  2064   0.830E-02    0.127E-02
DAV:   9    -0.572335306106E+02    0.53745E-06   -0.83515E-06  1984   0.325E-02    0.104E-02
DAV:  10    -0.572335293469E+02    0.12636E-05   -0.18390E-06  2544   0.217E-02    0.681E-03
DAV:  11    -0.572335292598E+02    0.87151E-07   -0.11597E-05  2416   0.313E-02    0.597E-03
DAV:  12    -0.572335287172E+02    0.54260E-06   -0.17490E-06  1968   0.236E-02    0.353E-03
DAV:  13    -0.572335286204E+02    0.96785E-07   -0.59981E-07  1560   0.994E-03
   7 F= -.57233529E+02 E0= -.57228314E+02  d E =-.430460E-02
       N       E                     dE             d eps       ncg     rms          rms(c)
DAV:   1    -0.572308888427E+02    0.26399E-02   -0.36426E+00  1856   0.603E+00    0.120E-01
DAV:   2    -0.572371373330E+02   -0.62485E-02   -0.64659E-02  2704   0.148E+00    0.151E-01
DAV:   3    -0.572368926864E+02    0.24465E-03   -0.11793E-03  1872   0.637E-01    0.103E-01
DAV:   4    -0.572368213017E+02    0.71385E-04   -0.28713E-04  2216   0.322E-01    0.910E-02
DAV:   5    -0.572367123882E+02    0.10891E-03   -0.57866E-04  3072   0.541E-01    0.551E-02
DAV:   6    -0.572366508819E+02    0.61506E-04   -0.11174E-03  3416   0.746E-01    0.375E-02
DAV:   7    -0.572366117468E+02    0.39135E-04   -0.27987E-04  2584   0.428E-01    0.938E-03
DAV:   8    -0.572366187397E+02   -0.69929E-05   -0.75190E-05  2184   0.692E-02    0.106E-02
DAV:   9    -0.572366179628E+02    0.77684E-06   -0.58917E-06  1936   0.280E-02    0.792E-03
DAV:  10    -0.572366169759E+02    0.98692E-06   -0.24334E-06  2656   0.236E-02    0.349E-03
DAV:  11    -0.572366169418E+02    0.34084E-07   -0.32602E-06  2320   0.229E-02    0.287E-03
DAV:  12    -0.572366168554E+02    0.86453E-07   -0.58401E-07  1824   0.141E-02
   8 F= -.57236617E+02 E0= -.57231282E+02  d E =-.308823E-02
       N       E                     dE             d eps       ncg     rms          rms(c)
DAV:   1    -0.572365216723E+02    0.95269E-04   -0.22638E+00  1856   0.472E+00    0.946E-02
DAV:   2    -0.572405270430E+02   -0.40054E-02   -0.41538E-02  2656   0.120E+00    0.111E-01
DAV:   3    -0.572404058793E+02    0.12116E-03   -0.71025E-04  2112   0.360E-01    0.767E-02
DAV:   4    -0.572403559357E+02    0.49944E-04   -0.12849E-04  2048   0.238E-01    0.660E-02
DAV:   5    -0.572402867261E+02    0.69210E-04   -0.26416E-04  3048   0.406E-01    0.362E-02
DAV:   6    -0.572402700818E+02    0.16644E-04   -0.49040E-04  3400   0.460E-01    0.235E-02
DAV:   7    -0.572402516878E+02    0.18394E-04   -0.12655E-04  2488   0.275E-01    0.838E-03
DAV:   8    -0.572402541484E+02   -0.24606E-05   -0.29957E-05  2016   0.393E-02    0.784E-03
DAV:   9    -0.572402535113E+02    0.63714E-06   -0.18007E-06  2112   0.201E-02    0.496E-03
DAV:  10    -0.572402532209E+02    0.29034E-06   -0.15415E-06  2568   0.226E-02    0.251E-03
DAV:  11    -0.572402531627E+02    0.58259E-07   -0.11610E-06  1904   0.181E-02    0.150E-03
DAV:  12    -0.572402531275E+02    0.35201E-07   -0.23280E-07  1168   0.576E-03
   9 F= -.57240253E+02 E0= -.57234899E+02  d E =-.363627E-02
       N       E                     dE             d eps       ncg     rms          rms(c)
DAV:   1    -0.572404901821E+02   -0.23702E-03   -0.17013E-01  1856   0.130E+00    0.304E-02
DAV:   2    -0.572407828189E+02   -0.29264E-03   -0.30767E-03  2640   0.337E-01    0.271E-02
DAV:   3    -0.572407784573E+02    0.43616E-05   -0.46629E-05  2112   0.117E-01    0.213E-02
DAV:   4    -0.572407755136E+02    0.29437E-05   -0.15858E-05  2016   0.110E-01    0.166E-02
DAV:   5    -0.572407720754E+02    0.34381E-05   -0.19688E-05  3312   0.707E-02    0.592E-03
DAV:   6    -0.572407716694E+02    0.40607E-06   -0.60141E-06  2224   0.693E-02    0.373E-03
DAV:   7    -0.572407715241E+02    0.14528E-06   -0.25331E-06  2496   0.337E-02    0.235E-03
DAV:   8    -0.572407715061E+02    0.17972E-07   -0.54479E-07  1696   0.111E-02
  10 F= -.57240772E+02 E0= -.57235381E+02  d E =-.518379E-03
       N       E                     dE             d eps       ncg     rms          rms(c)
DAV:   1    -0.572413415599E+02   -0.57004E-03   -0.14772E-01  1856   0.121E+00    0.226E-02
DAV:   2    -0.572415811629E+02   -0.23960E-03   -0.24728E-03  2624   0.282E-01    0.240E-02
DAV:   3    -0.572415761342E+02    0.50287E-05   -0.34170E-05  1976   0.854E-02    0.196E-02
DAV:   4    -0.572415736224E+02    0.25118E-05   -0.13352E-05  1984   0.918E-02    0.171E-02
DAV:   5    -0.572415693280E+02    0.42944E-05   -0.31786E-05  3328   0.130E-01    0.112E-02
DAV:   6    -0.572415665093E+02    0.28187E-05   -0.28295E-05  2784   0.137E-01    0.506E-03
DAV:   7    -0.572415661219E+02    0.38738E-06   -0.69080E-06  2800   0.421E-02    0.324E-03
DAV:   8    -0.572415661845E+02   -0.62584E-07   -0.12940E-06  1984   0.849E-03    0.274E-03
DAV:   9    -0.572415661325E+02    0.52049E-07   -0.28632E-08  1008   0.314E-03
  11 F= -.57241566E+02 E0= -.57236151E+02  d E =-.794626E-03
       N       E                     dE             d eps       ncg     rms          rms(c)
DAV:   1    -0.572421393011E+02   -0.57312E-03   -0.17191E-01  1856   0.130E+00    0.228E-02
DAV:   2    -0.572424180490E+02   -0.27875E-03   -0.28626E-03  2624   0.299E-01    0.253E-02
DAV:   3    -0.572424122831E+02    0.57659E-05   -0.39026E-05  2080   0.857E-02    0.210E-02
DAV:   4    -0.572424101016E+02    0.21816E-05   -0.23151E-05  1976   0.123E-01    0.190E-02
DAV:   5    -0.572424022226E+02    0.78790E-05   -0.30355E-05  3392   0.121E-01    0.105E-02
DAV:   6    -0.572424001635E+02    0.20591E-05   -0.21599E-05  3392   0.108E-01    0.567E-03
DAV:   7    -0.572423995817E+02    0.58179E-06   -0.50966E-06  2880   0.461E-02    0.334E-03
DAV:   8    -0.572423995735E+02    0.82073E-08   -0.11107E-06  2000   0.123E-02    0.211E-03
DAV:   9    -0.572423995675E+02    0.59918E-08   -0.18942E-07  1008   0.652E-03
  12 F= -.57242400E+02 E0= -.57236964E+02  d E =-.833435E-03
       N       E                     dE             d eps       ncg     rms          rms(c)
DAV:   1    -0.572429492532E+02   -0.54968E-03   -0.20959E-01  1856   0.144E+00    0.253E-02
DAV:   2    -0.572432887548E+02   -0.33950E-03   -0.34943E-03  2624   0.331E-01    0.288E-02
DAV:   3    -0.572432815059E+02    0.72489E-05   -0.53239E-05  1968   0.106E-01    0.236E-02
DAV:   4    -0.572432784941E+02    0.30119E-05   -0.24214E-05  1968   0.124E-01    0.211E-02
DAV:   5    -0.572432697276E+02    0.87665E-05   -0.34989E-05  3360   0.132E-01    0.130E-02
DAV:   6    -0.572432663630E+02    0.33646E-05   -0.32444E-05  3312   0.136E-01    0.653E-03
DAV:   7    -0.572432654873E+02    0.87564E-06   -0.82532E-06  2912   0.552E-02    0.372E-03
DAV:   8    -0.572432655105E+02   -0.23167E-07   -0.16895E-06  2088   0.131E-02    0.242E-03
DAV:   9    -0.572432654888E+02    0.21671E-07   -0.19407E-07  1040   0.689E-03
  13 F= -.57243265E+02 E0= -.57237807E+02  d E =-.865921E-03
       N       E                     dE             d eps       ncg     rms          rms(c)
DAV:   1    -0.572437792869E+02   -0.51378E-03   -0.24697E-01  1856   0.156E+00    0.276E-02
DAV:   2    -0.572441829159E+02   -0.40363E-03   -0.41552E-03  2624   0.363E-01    0.314E-02
DAV:   3    -0.572441743849E+02    0.85310E-05   -0.70851E-05  1968   0.126E-01    0.257E-02
DAV:   4    -0.572441711122E+02    0.32727E-05   -0.32416E-05  1968   0.144E-01    0.230E-02
DAV:   5    -0.572441602613E+02    0.10851E-04   -0.36798E-05  3376   0.132E-01    0.137E-02
DAV:   6    -0.572441566335E+02    0.36278E-05   -0.33641E-05  3360   0.136E-01    0.724E-03
DAV:   7    -0.572441555081E+02    0.11254E-05   -0.93007E-06  2896   0.629E-02    0.393E-03
DAV:   8    -0.572441555302E+02   -0.22144E-07   -0.20113E-06  2224   0.165E-02    0.243E-03
DAV:   9    -0.572441555472E+02   -0.17000E-07   -0.37966E-07  1544   0.797E-03
  14 F= -.57244156E+02 E0= -.57238672E+02  d E =-.890058E-03
       N       E                     dE             d eps       ncg     rms          rms(c)
DAV:   1    -0.572446428589E+02   -0.48733E-03   -0.28202E-01  1856   0.167E+00    0.296E-02
DAV:   2    -0.572451081872E+02   -0.46533E-03   -0.47961E-03  2624   0.391E-01    0.339E-02
DAV:   3    -0.572450981969E+02    0.99903E-05   -0.89506E-05  1952   0.143E-01    0.277E-02
DAV:   4    -0.572450944038E+02    0.37931E-05   -0.37351E-05  1984   0.153E-01    0.246E-02
DAV:   5    -0.572450822950E+02    0.12109E-04   -0.38887E-05  3392   0.135E-01    0.150E-02
DAV:   6    -0.572450780142E+02    0.42808E-05   -0.38932E-05  3344   0.146E-01    0.789E-03
DAV:   7    -0.572450765186E+02    0.14955E-05   -0.11488E-05  2896   0.711E-02    0.413E-03
DAV:   8    -0.572450765866E+02   -0.67932E-07   -0.25089E-06  2272   0.185E-02    0.257E-03
DAV:   9    -0.572450766013E+02   -0.14734E-07   -0.49101E-07  1664   0.883E-03
  15 F= -.57245077E+02 E0= -.57239564E+02  d E =-.921054E-03
       N       E                     dE             d eps       ncg     rms          rms(c)
DAV:   1    -0.572454842480E+02   -0.40766E-03   -0.31283E-01  1856   0.176E+00    0.313E-02
DAV:   2    -0.572460091072E+02   -0.52486E-03   -0.54169E-03  2624   0.419E-01    0.362E-02
DAV:   3    -0.572459981943E+02    0.10913E-04   -0.11865E-04  1952   0.170E-01    0.294E-02
DAV:   4    -0.572459940705E+02    0.41239E-05   -0.45789E-05  1984   0.168E-01    0.259E-02
DAV:   5    -0.572459803336E+02    0.13737E-04   -0.39024E-05  3392   0.128E-01    0.158E-02
DAV:   6    -0.572459757800E+02    0.45536E-05   -0.39711E-05  3376   0.146E-01    0.867E-03
DAV:   7    -0.572459740198E+02    0.17602E-05   -0.12721E-05  2832   0.792E-02    0.431E-03
DAV:   8    -0.572459741302E+02   -0.11035E-06   -0.29461E-06  2424   0.217E-02    0.262E-03
DAV:   9    -0.572459741744E+02   -0.44274E-07   -0.73588E-07  1880   0.962E-03
  16 F= -.57245974E+02 E0= -.57240431E+02  d E =-.897573E-03
       N       E                     dE             d eps       ncg     rms          rms(c)
DAV:   1    -0.572464615458E+02   -0.48742E-03   -0.33340E-01  1856   0.181E+00    0.329E-02
DAV:   2    -0.572470229262E+02   -0.56138E-03   -0.58067E-03  2624   0.436E-01    0.375E-02
DAV:   3    -0.572470109372E+02    0.11989E-04   -0.13781E-04  1936   0.187E-01    0.304E-02
DAV:   4    -0.572470062474E+02    0.46898E-05   -0.48067E-05  2008   0.169E-01    0.264E-02
DAV:   5    -0.572469925512E+02    0.13696E-04   -0.38433E-05  3376   0.126E-01    0.164E-02
DAV:   6    -0.572469877934E+02    0.47578E-05   -0.43013E-05  3392   0.154E-01    0.883E-03
DAV:   7    -0.572469858516E+02    0.19417E-05   -0.13947E-05  2800   0.832E-02    0.427E-03
DAV:   8    -0.572469860203E+02   -0.16868E-06   -0.32360E-06  2376   0.229E-02    0.261E-03
DAV:   9    -0.572469860764E+02   -0.56094E-07   -0.84320E-07  1920   0.104E-02
  17 F= -.57246986E+02 E0= -.57241406E+02  d E =-.101190E-02
       N       E                     dE             d eps       ncg     rms          rms(c)
DAV:   1    -0.572466443774E+02    0.34164E-03   -0.23845E-01  1856   0.151E+00    0.309E-02
DAV:   2    -0.572470948935E+02   -0.45052E-03   -0.46742E-03  2624   0.402E-01    0.328E-02
DAV:   3    -0.572470895577E+02    0.53358E-05   -0.14314E-04  2112   0.194E-01    0.259E-02
DAV:   4    -0.572470871285E+02    0.24292E-05   -0.65336E-05  1984   0.210E-01    0.229E-02
DAV:   5    -0.572470759923E+02    0.11136E-04   -0.38793E-05  3296   0.127E-01    0.125E-02
DAV:   6    -0.572470739656E+02    0.20267E-05   -0.23847E-05  3344   0.107E-01    0.787E-03
DAV:   7    -0.572470726759E+02    0.12897E-05   -0.79631E-06  2032   0.702E-02    0.380E-03
DAV:   8    -0.572470727520E+02   -0.76034E-07   -0.25695E-06  2312   0.220E-02    0.232E-03
DAV:   9    -0.572470727799E+02   -0.27918E-07   -0.80051E-07  1824   0.869E-03
  18 F= -.57247073E+02 E0= -.57241483E+02  d E =-.867034E-04
       N       E                     dE             d eps       ncg     rms          rms(c)
DAV:   1    -0.572471239696E+02   -0.51218E-04   -0.87562E-04  1792   0.922E-02    0.250E-03
DAV:   2    -0.572471255493E+02   -0.15797E-05   -0.17185E-05  2656   0.331E-02    0.286E-03
DAV:   3    -0.572471254960E+02    0.53344E-07   -0.17818E-06  1968   0.288E-02    0.200E-03
DAV:   4    -0.572471255090E+02   -0.13086E-07   -0.35192E-07  1088   0.139E-02
  19 F= -.57247126E+02 E0= -.57241533E+02  d E =-.527292E-04
       N       E                     dE             d eps       ncg     rms          rms(c)
DAV:   1    -0.572472297404E+02   -0.10424E-03   -0.29980E-03  1872   0.170E-01    0.479E-03
DAV:   2    -0.572472350526E+02   -0.53121E-05   -0.58157E-05  2640   0.496E-02    0.459E-03
DAV:   3    -0.572472349756E+02    0.77031E-07   -0.18742E-06  2080   0.301E-02    0.330E-03
DAV:   4    -0.572472349115E+02    0.64054E-07   -0.84281E-07  1168   0.236E-02
  20 F= -.57247235E+02 E0= -.57241639E+02  d E =-.109402E-03
       N       E                     dE             d eps       ncg     rms          rms(c)
DAV:   1    -0.572474033656E+02   -0.16839E-03   -0.52703E-03  1792   0.226E-01    0.631E-03
DAV:   2    -0.572474128048E+02   -0.94392E-05   -0.10641E-04  2656   0.754E-02    0.529E-03
DAV:   3    -0.572474133200E+02   -0.51522E-06   -0.18433E-05  1968   0.892E-02    0.632E-03
DAV:   4    -0.572474128754E+02    0.44465E-06   -0.32786E-06  1968   0.388E-02    0.354E-03
DAV:   5    -0.572474128587E+02    0.16644E-07   -0.10950E-06  1360   0.234E-02    0.202E-03
DAV:   6    -0.572474129248E+02   -0.66091E-07   -0.17125E-06  2576   0.166E-02    0.165E-03
DAV:   7    -0.572474129028E+02    0.22017E-07   -0.14788E-07  1136   0.944E-03
  21 F= -.57247413E+02 E0= -.57241811E+02  d E =-.177991E-03
       N       E                     dE             d eps       ncg     rms          rms(c)
DAV:   1    -0.572476365691E+02   -0.22364E-03   -0.68514E-03  1856   0.253E-01    0.568E-03
DAV:   2    -0.572476479300E+02   -0.11361E-04   -0.12101E-04  2640   0.675E-02    0.516E-03
DAV:   3    -0.572476478187E+02    0.11129E-06   -0.34667E-06  2080   0.367E-02    0.426E-03
DAV:   4    -0.572476476379E+02    0.18078E-06   -0.11503E-06  1920   0.265E-02    0.332E-03
DAV:   5    -0.572476476967E+02   -0.58768E-07   -0.15717E-06  1664   0.321E-02    0.265E-03
DAV:   6    -0.572476474715E+02    0.22518E-06   -0.11935E-06  1464   0.286E-02    0.133E-03
DAV:   7    -0.572476474803E+02   -0.88257E-08   -0.38330E-07  1360   0.530E-03
  22 F= -.57247647E+02 E0= -.57242039E+02  d E =-.234577E-03
       N       E                     dE             d eps       ncg     rms          rms(c)
DAV:   1    -0.572478571233E+02   -0.20965E-03   -0.57354E-03  1856   0.230E-01    0.418E-03
DAV:   2    -0.572478666737E+02   -0.95504E-05   -0.99627E-05  2624   0.585E-02    0.429E-03
DAV:   3    -0.572478665181E+02    0.15556E-06   -0.25503E-06  2080   0.282E-02    0.357E-03
DAV:   4    -0.572478663809E+02    0.13722E-06   -0.80920E-07  1680   0.222E-02    0.307E-03
DAV:   5    -0.572478661873E+02    0.19358E-06   -0.38992E-07  1104   0.154E-02    0.219E-03
DAV:   6    -0.572478660610E+02    0.12639E-06   -0.78817E-07  2000   0.171E-02    0.143E-03
DAV:   7    -0.572478660486E+02    0.12387E-07   -0.23195E-07  1152   0.614E-03
  23 F= -.57247866E+02 E0= -.57242253E+02  d E =-.218568E-03
       N       E                     dE             d eps       ncg     rms          rms(c)
DAV:   1    -0.572480419329E+02   -0.17587E-03   -0.66972E-03  1856   0.253E-01    0.464E-03
DAV:   2    -0.572480532949E+02   -0.11362E-04   -0.11911E-04  2624   0.630E-02    0.482E-03
DAV:   3    -0.572480530900E+02    0.20497E-06   -0.32773E-06  2080   0.314E-02    0.409E-03
DAV:   4    -0.572480529270E+02    0.16300E-06   -0.11314E-06  1888   0.267E-02    0.351E-03
DAV:   5    -0.572480525996E+02    0.32739E-06   -0.41715E-07  1120   0.141E-02    0.222E-03
DAV:   6    -0.572480525135E+02    0.86071E-07   -0.13909E-06  2640   0.182E-02    0.178E-03
DAV:   7    -0.572480524739E+02    0.39621E-07   -0.10132E-07  1088   0.745E-03
  24 F= -.57248052E+02 E0= -.57242435E+02  d E =-.186425E-03
       N       E                     dE             d eps       ncg     rms          rms(c)
DAV:   1    -0.572481965563E+02   -0.14404E-03   -0.77014E-03  1856   0.273E-01    0.505E-03
DAV:   2    -0.572482097917E+02   -0.13235E-04   -0.13973E-04  2624   0.680E-02    0.533E-03
DAV:   3    -0.572482095245E+02    0.26715E-06   -0.39031E-06  2032   0.324E-02    0.456E-03
DAV:   4    -0.572482093358E+02    0.18871E-06   -0.13716E-06  1952   0.291E-02    0.389E-03
DAV:   5    -0.572482089668E+02    0.36903E-06   -0.49526E-07  1168   0.166E-02    0.266E-03
DAV:   6    -0.572482088079E+02    0.15895E-06   -0.16571E-06  2656   0.220E-02    0.189E-03
DAV:   7    -0.572482087504E+02    0.57484E-07   -0.15873E-07   992   0.978E-03
  25 F= -.57248209E+02 E0= -.57242586E+02  d E =-.156276E-03
       N       E                     dE             d eps       ncg     rms          rms(c)
DAV:   1    -0.572483268379E+02   -0.11803E-03   -0.86372E-03  1856   0.290E-01    0.541E-03
DAV:   2    -0.572483415924E+02   -0.14755E-04   -0.15670E-04  2624   0.725E-02    0.577E-03
DAV:   3    -0.572483413185E+02    0.27391E-06   -0.51698E-06  1984   0.398E-02    0.494E-03
DAV:   4    -0.572483410860E+02    0.23249E-06   -0.16500E-06  1952   0.318E-02    0.414E-03
DAV:   5    -0.572483406379E+02    0.44809E-06   -0.65305E-07  1536   0.155E-02    0.269E-03
DAV:   6    -0.572483404875E+02    0.15042E-06   -0.15843E-06  2400   0.224E-02    0.201E-03
DAV:   7    -0.572483404287E+02    0.58870E-07   -0.18102E-07  1064   0.105E-02
  26 F= -.57248340E+02 E0= -.57242712E+02  d E =-.131678E-03
       N       E                     dE             d eps       ncg     rms          rms(c)
DAV:   1    -0.572484405787E+02   -0.10009E-03   -0.95617E-03  1856   0.304E-01    0.569E-03
DAV:   2    -0.572484573816E+02   -0.16803E-04   -0.17881E-04  2624   0.779E-02    0.615E-03
DAV:   3    -0.572484571297E+02    0.25190E-06   -0.69016E-06  1976   0.462E-02    0.529E-03
DAV:   4    -0.572484568660E+02    0.26371E-06   -0.19513E-06  1952   0.343E-02    0.431E-03
DAV:   5    -0.572484564077E+02    0.45832E-06   -0.83648E-07  1936   0.147E-02    0.285E-03
DAV:   6    -0.572484561986E+02    0.20910E-06   -0.12975E-06  2168   0.233E-02    0.210E-03
DAV:   7    -0.572484561164E+02    0.82182E-07   -0.23776E-07  1008   0.124E-02
  27 F= -.57248456E+02 E0= -.57242821E+02  d E =-.115688E-03
       N       E                     dE             d eps       ncg     rms          rms(c)
DAV:   1    -0.572485445278E+02   -0.88329E-04   -0.10083E-02  1856   0.314E-01    0.595E-03
DAV:   2    -0.572485616767E+02   -0.17149E-04   -0.18384E-04  2624   0.797E-02    0.639E-03
DAV:   3    -0.572485614227E+02    0.25398E-06   -0.80188E-06  1952   0.517E-02    0.554E-03
DAV:   4    -0.572485611026E+02    0.32005E-06   -0.20594E-06  1936   0.347E-02    0.441E-03
DAV:   5    -0.572485606392E+02    0.46348E-06   -0.12222E-06  2640   0.144E-02    0.281E-03
DAV:   6    -0.572485603936E+02    0.24554E-06   -0.73661E-07  1752   0.233E-02    0.208E-03
DAV:   7    -0.572485602910E+02    0.10265E-06   -0.28280E-07  1024   0.133E-02    0.130E-03
DAV:   8    -0.572485602859E+02    0.50386E-08   -0.12163E-07  1120   0.672E-03
  28 F= -.57248560E+02 E0= -.57242918E+02  d E =-.104170E-03
       N       E                     dE             d eps       ncg     rms          rms(c)
DAV:   1    -0.572486631644E+02   -0.10287E-03   -0.95850E-03  1856   0.297E-01    0.587E-03
DAV:   2    -0.572486811383E+02   -0.17974E-04   -0.19064E-04  2624   0.872E-02    0.678E-03
DAV:   3    -0.572486810820E+02    0.56309E-07   -0.10971E-05  2080   0.629E-02    0.529E-03
DAV:   4    -0.572486807721E+02    0.30994E-06   -0.24715E-06  1952   0.374E-02    0.418E-03
DAV:   5    -0.572486804047E+02    0.36733E-06   -0.11941E-06  2640   0.165E-02    0.282E-03
DAV:   6    -0.572486801748E+02    0.22990E-06   -0.63626E-07  1744   0.224E-02    0.196E-03
DAV:   7    -0.572486800753E+02    0.99528E-07   -0.26685E-07  1040   0.120E-02
  29 F= -.57248680E+02 E0= -.57243033E+02  d E =-.119789E-03
       N       E                     dE             d eps       ncg     rms          rms(c)
DAV:   1    -0.572486664059E+02    0.13769E-04   -0.13747E-03  1848   0.116E-01    0.306E-03
DAV:   2    -0.572486685372E+02   -0.21313E-05   -0.24687E-05  2624   0.290E-02    0.250E-03
DAV:   3    -0.572486684614E+02    0.75834E-07   -0.47090E-07  1400   0.125E-02
  30 F= -.57248668E+02 E0= -.57243018E+02  d E =0.116140E-04
       N       E                     dE             d eps       ncg     rms          rms(c)
DAV:   1    -0.572486702338E+02   -0.16966E-05   -0.12740E-05  2464   0.176E-02    0.166E-03
DAV:   2    -0.572486702836E+02   -0.49829E-07   -0.82871E-07  1440   0.219E-02
  31 F= -.57248670E+02 E0= -.57243020E+02  d E =-.182228E-05
       N       E                     dE             d eps       ncg     rms          rms(c)
DAV:   1    -0.572486756519E+02   -0.54181E-05   -0.21421E-05  2552   0.240E-02    0.117E-03
DAV:   2    -0.572486756643E+02   -0.12413E-07   -0.46205E-07  1312   0.131E-02
  32 F= -.57248676E+02 E0= -.57243025E+02  d E =-.538071E-05
