unknown system                          
           1
     5.147737    0.000000    0.000000
     0.000000    5.147737    0.000000
     0.000000    0.000000   35.260000
   Cu   Ag
    16     1
Direct configuration=     1
   0.25000000  0.25000000  0.99705048
   0.75000000  0.25000000  0.99705048
   0.25000000  0.75000000  0.99705048
   0.75000000  0.75000000  0.99705048
   0.00000000  0.00000000  0.04866704
   0.50000000  0.00000000  0.04866704
   0.00000000  0.50000000  0.04866704
   0.50000000  0.50000000  0.04866704
   0.25022076  0.24992802  0.09985148
   0.75018941  0.25004111  0.10048962
   0.25020638  0.75008461  0.09957487
   0.75017678  0.74998141  0.10002484
   0.99888498  0.00093674  0.15042366
   0.50175075  0.00092850  0.15043971
   0.99776346  0.49833510  0.15023524
   0.50286927  0.49834602  0.15025187
   0.25014867  0.66668328  0.20372307
Direct configuration=     2
   0.25000000  0.25000000  0.99705048
   0.75000000  0.25000000  0.99705048
   0.25000000  0.75000000  0.99705048
   0.75000000  0.75000000  0.99705048
   0.00000000  0.00000000  0.04866704
   0.50000000  0.00000000  0.04866704
   0.00000000  0.50000000  0.04866704
   0.50000000  0.50000000  0.04866704
   0.25021657  0.24974407  0.09985584
   0.75018714  0.25001805  0.10048978
   0.25020243  0.75023793  0.09956855
   0.75017474  0.74998192  0.10000994
   0.99952595  0.00038312  0.15051947
   0.50109917  0.00037603  0.15053446
   0.99631037  0.49740352  0.14996523
   0.50430884  0.49741679  0.14998206
   0.25015253  0.66686046  0.20409287
Direct configuration=     3
   0.25000000  0.25000000  0.99705048
   0.75000000  0.25000000  0.99705048
   0.25000000  0.75000000  0.99705048
   0.75000000  0.75000000  0.99705048
   0.00000000  0.00000000  0.04866704
   0.50000000  0.00000000  0.04866704
   0.00000000  0.50000000  0.04866704
   0.50000000  0.50000000  0.04866704
   0.25020968  0.24936601  0.09985546
   0.75018286  0.24967156  0.10046345
   0.25019581  0.75045987  0.09955841
   0.75017094  0.75015372  0.09996934
   1.00051128 -0.00064343  0.15068232
   0.50009514 -0.00064886  0.15069554
   0.99459236  0.49618780  0.14960954
   0.50600417  0.49620337  0.14962608
   0.25015793  0.66742121  0.20456755
Direct configuration=     4
   0.25000000  0.25000000  0.99705048
   0.75000000  0.25000000  0.99705048
   0.25000000  0.75000000  0.99705048
   0.75000000  0.75000000  0.99705048
   0.00000000  0.00000000  0.04866704
   0.50000000  0.00000000  0.04866704
   0.00000000  0.50000000  0.04866704
   0.50000000  0.50000000  0.04866704
   0.25019817  0.24858699  0.09983969
   0.75017394  0.24841203  0.10036566
   0.25018433  0.75070179  0.09953934
   0.75016334  0.75075661  0.09987350
   1.00181171 -0.00247262  0.15094435
   0.49876195 -0.00247442  0.15095470
   0.99348186  0.49494315  0.14925613
   0.50707625  0.49495811  0.14927133
   0.25016946  0.66803215  0.20502524
Direct configuration=     5
   0.25000000  0.25000000  0.99705048
   0.75000000  0.25000000  0.99705048
   0.25000000  0.75000000  0.99705048
   0.75000000  0.75000000  0.99705048
   0.00000000  0.00000000  0.04866704
   0.50000000  0.00000000  0.04866704
   0.00000000  0.50000000  0.04866704
   0.50000000  0.50000000  0.04866704
   0.25018185  0.24737120  0.09981642
   0.75015953  0.24618852  0.10023785
   0.25016836  0.75071394  0.09949799
   0.75015164  0.75153581  0.09975122
   1.00276244 -0.00479435  0.15125170
   0.49776837 -0.00479356  0.15125864
   0.99427647  0.49409237  0.14911432
   0.50622897  0.49410106  0.14912578
   0.25017830  0.66802934  0.20518209
Direct configuration=     6
   0.25000000  0.25000000  0.99705048
   0.75000000  0.25000000  0.99705048
   0.25000000  0.75000000  0.99705048
   0.75000000  0.75000000  0.99705048
   0.00000000  0.00000000  0.04866704
   0.50000000  0.00000000  0.04866704
   0.00000000  0.50000000  0.04866704
   0.50000000  0.50000000  0.04866704
   0.25015512  0.24596556  0.09984012
   0.75014314  0.24498241  0.10038543
   0.25014494  0.75023194  0.09942157
   0.75013670  0.75074934  0.09979627
   1.00290550 -0.00689766  0.15152522
   0.49756947 -0.00689583  0.15152901
   0.99472935  0.49260307  0.14898405
   0.50571305  0.49261029  0.14899134
   0.25018638  0.66819049  0.20526852
Direct configuration=     7
   0.25000000  0.25000000  0.99705048
   0.75000000  0.25000000  0.99705048
   0.25000000  0.75000000  0.99705048
   0.75000000  0.75000000  0.99705048
   0.00000000  0.00000000  0.04866704
   0.50000000  0.00000000  0.04866704
   0.00000000  0.50000000  0.04866704
   0.50000000  0.50000000  0.04866704
   0.25012948  0.24434519  0.09987787
   0.75012155  0.24306032  0.10046482
   0.25011945  0.74951654  0.09943199
   0.75011771  0.75012925  0.09986574
   1.00293835 -0.00886498  0.15171187
   0.49747472 -0.00886235  0.15171350
   0.99530997  0.49114312  0.14906175
   0.50506357  0.49114193  0.14906384
   0.25018393  0.66807464  0.20523279
Direct configuration=     8
   0.25000000  0.25000000  0.99705048
   0.75000000  0.25000000  0.99705048
   0.25000000  0.75000000  0.99705048
   0.75000000  0.75000000  0.99705048
   0.00000000  0.00000000  0.04866704
   0.50000000  0.00000000  0.04866704
   0.00000000  0.50000000  0.04866704
   0.50000000  0.50000000  0.04866704
   0.25010571  0.24374092  0.09993995
   0.75011276  0.24278359  0.10058370
   0.25010154  0.74848234  0.09945961
   0.75010436  0.74870424  0.09993253
   1.00284552 -0.01001645  0.15181183
   0.49751517 -0.01002031  0.15181264
   0.99490061  0.48953068  0.14904206
   0.50542244  0.48952964  0.14904313
   0.25018313  0.66905181  0.20529734
Direct configuration=     9
   0.25000000  0.25000000  0.99705048
   0.75000000  0.25000000  0.99705048
   0.25000000  0.75000000  0.99705048
   0.75000000  0.75000000  0.99705048
   0.00000000  0.00000000  0.04866704
   0.50000000  0.00000000  0.04866704
   0.00000000  0.50000000  0.04866704
   0.50000000  0.50000000  0.04866704
   0.25010386  0.24346045  0.09993746
   0.75010755  0.24231145  0.10055888
   0.25009835  0.74839714  0.09947158
   0.75010103  0.74875553  0.09993044
   1.00283309 -0.01033188  0.15182266
   0.49751671 -0.01033493  0.15182323
   0.99516921  0.48941175  0.14910013
   0.50514341  0.48940806  0.14910051
   0.25018251  0.66896501  0.20526296
Direct configuration=    10
   0.25000000  0.25000000  0.99705048
   0.75000000  0.25000000  0.99705048
   0.25000000  0.75000000  0.99705048
   0.75000000  0.75000000  0.99705048
   0.00000000  0.00000000  0.04866704
   0.50000000  0.00000000  0.04866704
   0.00000000  0.50000000  0.04866704
   0.50000000  0.50000000  0.04866704
   0.25009944  0.24317676  0.09994541
   0.75010205  0.24196181  0.10056307
   0.25009342  0.74820514  0.09948426
   0.75009659  0.74858811  0.09994189
   1.00280343 -0.01071036  0.15183897
   0.49753099 -0.01071312  0.15183930
   0.99526248  0.48908431  0.14913867
   0.50503623  0.48907815  0.14913828
   0.25017984  0.66908762  0.20525521
Direct configuration=    11
   0.25000000  0.25000000  0.99705048
   0.75000000  0.25000000  0.99705048
   0.25000000  0.75000000  0.99705048
   0.75000000  0.75000000  0.99705048
   0.00000000  0.00000000  0.04866704
   0.50000000  0.00000000  0.04866704
   0.00000000  0.50000000  0.04866704
   0.50000000  0.50000000  0.04866704
   0.25009304  0.24291866  0.09995926
   0.75009693  0.24170046  0.10058200
   0.25008775  0.74794878  0.09949736
   0.75009152  0.74829790  0.09995981
   1.00276994 -0.01110803  0.15185860
   0.49754618 -0.01111084  0.15185876
   0.99526753  0.48866220  0.14916701
   0.50501471  0.48865461  0.14916590
   0.25017759  0.66924937  0.20526615
Direct configuration=    12
   0.25000000  0.25000000  0.99705048
   0.75000000  0.25000000  0.99705048
   0.25000000  0.75000000  0.99705048
   0.75000000  0.75000000  0.99705048
   0.00000000  0.00000000  0.04866704
   0.50000000  0.00000000  0.04866704
   0.00000000  0.50000000  0.04866704
   0.50000000  0.50000000  0.04866704
   0.25008580  0.24264390  0.09997513
   0.75009097  0.24140574  0.10060125
   0.25008140  0.74766170  0.09951287
   0.75008582  0.74798413  0.09997905
   1.00273951 -0.01154805  0.15188159
   0.49755562 -0.01155087  0.15188149
   0.99529530  0.48821387  0.14920346
   0.50496755  0.48820459  0.14920181
   0.25017437  0.66941633  0.20527882
Direct configuration=    13
   0.25000000  0.25000000  0.99705048
   0.75000000  0.25000000  0.99705048
   0.25000000  0.75000000  0.99705048
   0.75000000  0.75000000  0.99705048
   0.00000000  0.00000000  0.04866704
   0.50000000  0.00000000  0.04866704
   0.00000000  0.50000000  0.04866704
   0.50000000  0.50000000  0.04866704
   0.25007760  0.24235637  0.09999407
   0.75008343  0.24110390  0.10062518
   0.25007422  0.74735025  0.09953049
   0.75007912  0.74763548  0.10000171
   1.00270757 -0.01201536  0.15190768
   0.49756416 -0.01201881  0.15190735
   0.99531426  0.48773354  0.14924477
   0.50492619  0.48772221  0.14924257
   0.25017074  0.66960096  0.20529798
Direct configuration=    14
   0.25000000  0.25000000  0.99705048
   0.75000000  0.25000000  0.99705048
   0.25000000  0.75000000  0.99705048
   0.75000000  0.75000000  0.99705048
   0.00000000  0.00000000  0.04866704
   0.50000000  0.00000000  0.04866704
   0.00000000  0.50000000  0.04866704
   0.50000000  0.50000000  0.04866704
   0.25006852  0.24205601  0.10001597
   0.75007526  0.24078207  0.10065146
   0.25006619  0.74702317  0.09955084
   0.75007160  0.74727515  0.10002681
   1.00267381 -0.01250264  0.15193688
   0.49757125 -0.01250669  0.15193633
   0.99534411  0.48724150  0.14929407
   0.50487193  0.48722771  0.14929137
   0.25016273  0.66981380  0.20532316
Direct configuration=    15
   0.25000000  0.25000000  0.99705048
   0.75000000  0.25000000  0.99705048
   0.25000000  0.75000000  0.99705048
   0.75000000  0.75000000  0.99705048
   0.00000000  0.00000000  0.04866704
   0.50000000  0.00000000  0.04866704
   0.00000000  0.50000000  0.04866704
   0.50000000  0.50000000  0.04866704
   0.25005894  0.24175689  0.10004216
   0.75006673  0.24047736  0.10068395
   0.25005740  0.74668672  0.09957390
   0.75006271  0.74688979  0.10005633
   1.00263653 -0.01299339  0.15196985
   0.49757864 -0.01299944  0.15196900
   0.99535854  0.48673750  0.14934863
   0.50483066  0.48672276  0.14934571
   0.25014645  0.67004580  0.20535893
Direct configuration=    16
   0.25000000  0.25000000  0.99705048
   0.75000000  0.25000000  0.99705048
   0.25000000  0.75000000  0.99705048
   0.75000000  0.75000000  0.99705048
   0.00000000  0.00000000  0.04866704
   0.50000000  0.00000000  0.04866704
   0.00000000  0.50000000  0.04866704
   0.50000000  0.50000000  0.04866704
   0.25004989  0.24146582  0.10007028
   0.75005592  0.24013604  0.10071298
   0.25004747  0.74636659  0.09959979
   0.75005401  0.74655535  0.10008506
   1.00259935 -0.01348203  0.15200674
   0.49758356 -0.01348804  0.15200581
   0.99543477  0.48627398  0.14941856
   0.50472471  0.48625894  0.14941562
   0.25011915  0.67034872  0.20538981
Direct configuration=    17
   0.25000000  0.25000000  0.99705048
   0.75000000  0.25000000  0.99705048
   0.25000000  0.75000000  0.99705048
   0.75000000  0.75000000  0.99705048
   0.00000000  0.00000000  0.04866704
   0.50000000  0.00000000  0.04866704
   0.00000000  0.50000000  0.04866704
   0.50000000  0.50000000  0.04866704
   0.25003792  0.24129509  0.10009863
   0.75004886  0.24010459  0.10076589
   0.25004067  0.74610629  0.09961931
   0.75004239  0.74613390  0.10012323
   1.00255174 -0.01378897  0.15203406
   0.49759849 -0.01379813  0.15203323
   0.99524080  0.48583438  0.14943843
   0.50488736  0.48582903  0.14943691
   0.25010975  0.67037301  0.20546511
Direct configuration=    18
   0.25000000  0.25000000  0.99705048
   0.75000000  0.25000000  0.99705048
   0.25000000  0.75000000  0.99705048
   0.75000000  0.75000000  0.99705048
   0.00000000  0.00000000  0.04866704
   0.50000000  0.00000000  0.04866704
   0.00000000  0.50000000  0.04866704
   0.50000000  0.50000000  0.04866704
   0.25003809  0.24128650  0.10009836
   0.75004830  0.24007744  0.10076319
   0.25004035  0.74610384  0.09961989
   0.75004237  0.74614548  0.10012221
   1.00255371 -0.01380245  0.15203484
   0.49759591 -0.01381113  0.15203401
   0.99526625  0.48583970  0.14944279
   0.50486167  0.48583369  0.14944117
   0.25010901  0.67038370  0.20546155
Direct configuration=    19
   0.25000000  0.25000000  0.99705048
   0.75000000  0.25000000  0.99705048
   0.25000000  0.75000000  0.99705048
   0.75000000  0.75000000  0.99705048
   0.00000000  0.00000000  0.04866704
   0.50000000  0.00000000  0.04866704
   0.00000000  0.50000000  0.04866704
   0.50000000  0.50000000  0.04866704
   0.25003831  0.24126966  0.10009802
   0.75004717  0.24002702  0.10075853
   0.25003966  0.74609752  0.09962097
   0.75004223  0.74616391  0.10012046
   1.00255665 -0.01382927  0.15203646
   0.49759153 -0.01383705  0.15203561
   0.99531228  0.48584580  0.14945104
   0.50481495  0.48583859  0.14944925
   0.25010808  0.67041202  0.20545567
Direct configuration=    20
   0.25000000  0.25000000  0.99705048
   0.75000000  0.25000000  0.99705048
   0.25000000  0.75000000  0.99705048
   0.75000000  0.75000000  0.99705048
   0.00000000  0.00000000  0.04866704
   0.50000000  0.00000000  0.04866704
   0.00000000  0.50000000  0.04866704
   0.50000000  0.50000000  0.04866704
   0.25003835  0.24124463  0.10009841
   0.75004554  0.23996142  0.10075400
   0.25003853  0.74608369  0.09962282
   0.75004186  0.74617919  0.10011902
   1.00255890 -0.01386930  0.15203897
   0.49758669 -0.01387594  0.15203812
   0.99536790  0.48584295  0.14946200
   0.50475792  0.48583421  0.14945997
   0.25010642  0.67046898  0.20544844
Direct configuration=    21
   0.25000000  0.25000000  0.99705048
   0.75000000  0.25000000  0.99705048
   0.25000000  0.75000000  0.99705048
   0.75000000  0.75000000  0.99705048
   0.00000000  0.00000000  0.04866704
   0.50000000  0.00000000  0.04866704
   0.00000000  0.50000000  0.04866704
   0.50000000  0.50000000  0.04866704
   0.25003786  0.24121204  0.10009996
   0.75004348  0.23989349  0.10075185
   0.25003693  0.74605954  0.09962509
   0.75004100  0.74617795  0.10011879
   1.00255860 -0.01392315  0.15204287
   0.49758258 -0.01392849  0.15204200
   0.99541867  0.48581873  0.14947459
   0.50470461  0.48580837  0.14947229
   0.25010417  0.67055497  0.20544356
Direct configuration=    22
   0.25000000  0.25000000  0.99705048
   0.75000000  0.25000000  0.99705048
   0.25000000  0.75000000  0.99705048
   0.75000000  0.75000000  0.99705048
   0.00000000  0.00000000  0.04866704
   0.50000000  0.00000000  0.04866704
   0.00000000  0.50000000  0.04866704
   0.50000000  0.50000000  0.04866704
   0.25003633  0.24118093  0.10010378
   0.75004174  0.23985845  0.10075664
   0.25003514  0.74602360  0.09962797
   0.75003955  0.74613859  0.10012230
   1.00255157 -0.01397514  0.15204725
   0.49758362 -0.01397993  0.15204637
   0.99542711  0.48576265  0.14948320
   0.50469194  0.48575167  0.14948078
   0.25010138  0.67064391  0.20544635
Direct configuration=    23
   0.25000000  0.25000000  0.99705048
   0.75000000  0.25000000  0.99705048
   0.25000000  0.75000000  0.99705048
   0.75000000  0.75000000  0.99705048
   0.00000000  0.00000000  0.04866704
   0.50000000  0.00000000  0.04866704
   0.00000000  0.50000000  0.04866704
   0.50000000  0.50000000  0.04866704
   0.25003435  0.24114739  0.10010828
   0.75004001  0.23982272  0.10076230
   0.25003328  0.74598220  0.09963184
   0.75003784  0.74609080  0.10012716
   1.00254321 -0.01403379  0.15205251
   0.49758451 -0.01403827  0.15205162
   0.99543325  0.48570205  0.14949314
   0.50468036  0.48569113  0.14949073
   0.25009634  0.67071772  0.20545127
Direct configuration=    24
   0.25000000  0.25000000  0.99705048
   0.75000000  0.25000000  0.99705048
   0.25000000  0.75000000  0.99705048
   0.75000000  0.75000000  0.99705048
   0.00000000  0.00000000  0.04866704
   0.50000000  0.00000000  0.04866704
   0.00000000  0.50000000  0.04866704
   0.50000000  0.50000000  0.04866704
   0.25003221  0.24111129  0.10011330
   0.75003778  0.23978523  0.10076846
   0.25003129  0.74593884  0.09963637
   0.75003553  0.74603991  0.10013275
   1.00253514 -0.01409568  0.15205884
   0.49758396 -0.01409992  0.15205795
   0.99543672  0.48563914  0.14950425
   0.50467038  0.48562887  0.14950190
   0.25008981  0.67077997  0.20545903
Direct configuration=    25
   0.25000000  0.25000000  0.99705048
   0.75000000  0.25000000  0.99705048
   0.25000000  0.75000000  0.99705048
   0.75000000  0.75000000  0.99705048
   0.00000000  0.00000000  0.04866704
   0.50000000  0.00000000  0.04866704
   0.00000000  0.50000000  0.04866704
   0.50000000  0.50000000  0.04866704
   0.25002961  0.24107593  0.10011917
   0.75003488  0.23974676  0.10077544
   0.25002870  0.74589307  0.09964160
   0.75003286  0.74598755  0.10013902
   1.00252720 -0.01415913  0.15206619
   0.49758154 -0.01416304  0.15206533
   0.99544196  0.48557624  0.14951680
   0.50465702  0.48556691  0.14951464
   0.25008350  0.67083044  0.20546756
Direct configuration=    26
   0.25000000  0.25000000  0.99705048
   0.75000000  0.25000000  0.99705048
   0.25000000  0.75000000  0.99705048
   0.75000000  0.75000000  0.99705048
   0.00000000  0.00000000  0.04866704
   0.50000000  0.00000000  0.04866704
   0.00000000  0.50000000  0.04866704
   0.50000000  0.50000000  0.04866704
   0.25002632  0.24103966  0.10012556
   0.75003109  0.23970998  0.10078345
   0.25002541  0.74584992  0.09964726
   0.75002928  0.74593538  0.10014611
   1.00251884 -0.01422227  0.15207437
   0.49757756 -0.01422562  0.15207356
   0.99544219  0.48551219  0.14952945
   0.50464708  0.48550350  0.14952746
   0.25007974  0.67087858  0.20547918
Direct configuration=    27
   0.25000000  0.25000000  0.99705048
   0.75000000  0.25000000  0.99705048
   0.25000000  0.75000000  0.99705048
   0.75000000  0.75000000  0.99705048
   0.00000000  0.00000000  0.04866704
   0.50000000  0.00000000  0.04866704
   0.00000000  0.50000000  0.04866704
   0.50000000  0.50000000  0.04866704
   0.25002287  0.24100548  0.10013212
   0.75002703  0.23966907  0.10079089
   0.25002197  0.74580629  0.09965326
   0.75002534  0.74588705  0.10015308
   1.00251162 -0.01428573  0.15208384
   0.49757160 -0.01428866  0.15208307
   0.99545465  0.48545787  0.14954469
   0.50462507  0.48544883  0.14954248
   0.25006894  0.67091803  0.20548895
Direct configuration=    28
   0.25000000  0.25000000  0.99705048
   0.75000000  0.25000000  0.99705048
   0.25000000  0.75000000  0.99705048
   0.75000000  0.75000000  0.99705048
   0.00000000  0.00000000  0.04866704
   0.50000000  0.00000000  0.04866704
   0.00000000  0.50000000  0.04866704
   0.50000000  0.50000000  0.04866704
   0.25001849  0.24097693  0.10013921
   0.75002461  0.23965116  0.10080147
   0.25001829  0.74577101  0.09965831
   0.75002214  0.74583505  0.10016094
   1.00250006 -0.01433089  0.15209204
   0.49756856 -0.01433444  0.15209139
   0.99543076  0.48538975  0.14955375
   0.50463497  0.48538462  0.14955257
   0.25005693  0.67098039  0.20550462
Direct configuration=    29
   0.25000000  0.25000000  0.99705048
   0.75000000  0.25000000  0.99705048
   0.25000000  0.75000000  0.99705048
   0.75000000  0.75000000  0.99705048
   0.00000000  0.00000000  0.04866704
   0.50000000  0.00000000  0.04866704
   0.00000000  0.50000000  0.04866704
   0.50000000  0.50000000  0.04866704
   0.25001880  0.24096861  0.10014005
   0.75002091  0.23962793  0.10080028
   0.25001749  0.74576194  0.09966050
   0.75001976  0.74583513  0.10016184
   1.00250107 -0.01435160  0.15209484
   0.49756288 -0.01435384  0.15209414
   0.99545717  0.48539729  0.14956076
   0.50460514  0.48539093  0.14955932
   0.25005452  0.67096646  0.20550348
Direct configuration=    30
   0.25000000  0.25000000  0.99705048
   0.75000000  0.25000000  0.99705048
   0.25000000  0.75000000  0.99705048
   0.75000000  0.75000000  0.99705048
   0.00000000  0.00000000  0.04866704
   0.50000000  0.00000000  0.04866704
   0.00000000  0.50000000  0.04866704
   0.50000000  0.50000000  0.04866704
   0.25001857  0.24096838  0.10014022
   0.75002096  0.23962929  0.10080070
   0.25001735  0.74576137  0.09966050
   0.75001972  0.74583325  0.10016203
   1.00250064 -0.01435161  0.15209494
   0.49756301 -0.01435390  0.15209425
   0.99545472  0.48539507  0.14956061
   0.50460730  0.48538879  0.14955919
   0.25005438  0.67096849  0.20550434
Direct configuration=    31
   0.25000000  0.25000000  0.99705048
   0.75000000  0.25000000  0.99705048
   0.25000000  0.75000000  0.99705048
   0.75000000  0.75000000  0.99705048
   0.00000000  0.00000000  0.04866704
   0.50000000  0.00000000  0.04866704
   0.00000000  0.50000000  0.04866704
   0.50000000  0.50000000  0.04866704
   0.25001835  0.24096751  0.10014051
   0.75002073  0.23962901  0.10080118
   0.25001715  0.74575999  0.09966069
   0.75001949  0.74583105  0.10016235
   1.00250018 -0.01435339  0.15209540
   0.49756272 -0.01435565  0.15209473
   0.99545322  0.48539219  0.14956104
   0.50460812  0.48538598  0.14955964
   0.25005354  0.67097153  0.20550509
Direct configuration=    32
   0.25000000  0.25000000  0.99705048
   0.75000000  0.25000000  0.99705048
   0.25000000  0.75000000  0.99705048
   0.75000000  0.75000000  0.99705048
   0.00000000  0.00000000  0.04866704
   0.50000000  0.00000000  0.04866704
   0.00000000  0.50000000  0.04866704
   0.50000000  0.50000000  0.04866704
   0.25001835  0.24096751  0.10014051
   0.75002073  0.23962901  0.10080118
   0.25001715  0.74575999  0.09966069
   0.75001949  0.74583105  0.10016235
   1.00250018 -0.01435339  0.15209540
   0.49756272 -0.01435565  0.15209473
   0.99545322  0.48539219  0.14956104
   0.50460812  0.48538598  0.14955964
   0.25005354  0.67097153  0.20550509
