  17  17   0   0
  0.5496246E+02  0.5147737E-09  0.5147737E-09  0.3526000E-08  0.0000000E+00
  1.000000000000000E-004
  CAR 
 unknown system                          
      5.40107502    -10.99702546  301     -1.51242761      1.00000000
    -10.997  0.0000E+00  0.0000E+00
    -10.942  0.0000E+00  0.0000E+00
    -10.888  0.0000E+00  0.0000E+00
    -10.833 -0.1909E-31 -0.1044E-32
    -10.778 -0.1233E-27 -0.6740E-29
    -10.724 -0.4358E-24 -0.2383E-25
    -10.669 -0.8426E-21 -0.4608E-22
    -10.614 -0.8902E-18 -0.4871E-19
    -10.560 -0.4970E-15 -0.2721E-16
    -10.505 -0.1550E-12 -0.8499E-14
    -10.450 -0.2617E-10 -0.1439E-11
    -10.396 -0.2379E-08 -0.1315E-09
    -10.341 -0.1154E-06 -0.6437E-08
    -10.286 -0.2932E-05 -0.1667E-06
    -10.232 -0.3768E-04 -0.2227E-05
    -10.177 -0.2226E-03 -0.1440E-04
    -10.122 -0.3830E-03 -0.3533E-04
    -10.068  0.1332E-02  0.3745E-04
    -10.013  0.6003E-02  0.3656E-03
     -9.958  0.7964E-02  0.8009E-03
     -9.904  0.3946E-02  0.1017E-02
     -9.849  0.2200E-03  0.1029E-02
     -9.794 -0.3884E-03  0.1007E-02
     -9.740 -0.1194E-03  0.1001E-02
     -9.685 -0.1441E-04  0.1000E-02
     -9.631 -0.1063E-05  0.1000E-02
     -9.576 -0.5687E-05  0.9997E-03
     -9.521 -0.7338E-04  0.9957E-03
     -9.467 -0.4381E-03  0.9717E-03
     -9.412 -0.7729E-03  0.9295E-03
     -9.357  0.2578E-02  0.1070E-02
     -9.303  0.1189E-01  0.1720E-02
     -9.248  0.1596E-01  0.2593E-02
     -9.193  0.8015E-02  0.3031E-02
     -9.139  0.4875E-03  0.3058E-02
     -9.084 -0.7814E-03  0.3015E-02
     -9.029 -0.2438E-03  0.3002E-02
     -8.975 -0.2972E-04  0.3000E-02
     -8.920 -0.2415E-05  0.3000E-02
     -8.865 -0.1203E-04  0.2999E-02
     -8.811 -0.1051E-03  0.2994E-02
     -8.756 -0.3733E-03  0.2973E-02
     -8.701  0.7670E-04  0.2977E-02
     -8.647  0.3475E-02  0.3167E-02
     -8.592  0.7466E-02  0.3575E-02
     -8.537  0.6386E-02  0.3924E-02
     -8.483  0.5051E-02  0.4201E-02
     -8.428  0.7423E-02  0.4606E-02
     -8.373  0.6204E-02  0.4945E-02
     -8.319  0.1649E-02  0.5036E-02
     -8.264 -0.3690E-03  0.5015E-02
     -8.209 -0.4439E-03  0.4991E-02
     -8.155 -0.7662E-03  0.4949E-02
     -8.100  0.7128E-05  0.4950E-02
     -8.045  0.6575E-02  0.5309E-02
     -7.991  0.1502E-01  0.6130E-02
     -7.936  0.1233E-01  0.6804E-02
     -7.881  0.5856E-02  0.7124E-02
     -7.827  0.1077E-01  0.7712E-02
     -7.772  0.1556E-01  0.8563E-02
     -7.717  0.8407E-02  0.9023E-02
     -7.663  0.6244E-03  0.9057E-02
     -7.608 -0.1148E-02  0.8994E-02
     -7.553 -0.1009E-02  0.8939E-02
     -7.499  0.1643E-02  0.9029E-02
     -7.444  0.9965E-02  0.9573E-02
     -7.389  0.1553E-01  0.1042E-01
     -7.335  0.9484E-02  0.1094E-01
     -7.280  0.3131E-02  0.1111E-01
     -7.225  0.5526E-02  0.1141E-01
     -7.171  0.7516E-02  0.1182E-01
     -7.116  0.3549E-02  0.1202E-01
     -7.061 -0.2204E-03  0.1201E-01
     -7.007 -0.1198E-02  0.1194E-01
     -6.952  0.1235E-02  0.1201E-01
     -6.898  0.9804E-02  0.1254E-01
     -6.843  0.1575E-01  0.1341E-01
     -6.788  0.9288E-02  0.1391E-01
     -6.734  0.3754E-02  0.1412E-01
     -6.679  0.1175E-01  0.1476E-01
     -6.624  0.2420E-01  0.1608E-01
     -6.570  0.2385E-01  0.1739E-01
     -6.515  0.1022E-01  0.1795E-01
     -6.460  0.2811E-02  0.1810E-01
     -6.406  0.1278E-01  0.1880E-01
     -6.351  0.3349E-01  0.2063E-01
     -6.296  0.4532E-01  0.2310E-01
     -6.242  0.3448E-01  0.2499E-01
     -6.187  0.1510E-01  0.2581E-01
     -6.132  0.1323E-01  0.2654E-01
     -6.078  0.3724E-01  0.2857E-01
     -6.023  0.6552E-01  0.3215E-01
     -5.968  0.6871E-01  0.3591E-01
     -5.914  0.4441E-01  0.3834E-01
     -5.859  0.2794E-01  0.3986E-01
     -5.804  0.3689E-01  0.4188E-01
     -5.750  0.4623E-01  0.4441E-01
     -5.695  0.4910E-01  0.4709E-01
     -5.640  0.6151E-01  0.5045E-01
     -5.586  0.8845E-01  0.5529E-01
     -5.531  0.1203E+00  0.6187E-01
     -5.476  0.1275E+00  0.6883E-01
     -5.422  0.1051E+00  0.7458E-01
     -5.367  0.8907E-01  0.7945E-01
     -5.312  0.8028E-01  0.8384E-01
     -5.258  0.6541E-01  0.8741E-01
     -5.203  0.5763E-01  0.9056E-01
     -5.148  0.5187E-01  0.9340E-01
     -5.094  0.4607E-01  0.9592E-01
     -5.039  0.6287E-01  0.9935E-01
     -4.984  0.8604E-01  0.1041E+00
     -4.930  0.8570E-01  0.1087E+00
     -4.875  0.8567E-01  0.1134E+00
     -4.820  0.8199E-01  0.1179E+00
     -4.766  0.6032E-01  0.1212E+00
     -4.711  0.6591E-01  0.1248E+00
     -4.656  0.9775E-01  0.1301E+00
     -4.602  0.1085E+00  0.1361E+00
     -4.547  0.9797E-01  0.1414E+00
     -4.492  0.9241E-01  0.1465E+00
     -4.438  0.9808E-01  0.1518E+00
     -4.383  0.1116E+00  0.1579E+00
     -4.328  0.1410E+00  0.1657E+00
     -4.274  0.1632E+00  0.1746E+00
     -4.219  0.1463E+00  0.1826E+00
     -4.164  0.1084E+00  0.1885E+00
     -4.110  0.7997E-01  0.1929E+00
     -4.055  0.7807E-01  0.1971E+00
     -4.001  0.1020E+00  0.2027E+00
     -3.946  0.1205E+00  0.2093E+00
     -3.891  0.1217E+00  0.2159E+00
     -3.837  0.1316E+00  0.2231E+00
     -3.782  0.1367E+00  0.2306E+00
     -3.727  0.1241E+00  0.2374E+00
     -3.673  0.1249E+00  0.2442E+00
     -3.618  0.1320E+00  0.2514E+00
     -3.563  0.1314E+00  0.2586E+00
     -3.509  0.1519E+00  0.2669E+00
     -3.454  0.1703E+00  0.2762E+00
     -3.399  0.1443E+00  0.2841E+00
     -3.345  0.1323E+00  0.2914E+00
     -3.290  0.1709E+00  0.3007E+00
     -3.235  0.1923E+00  0.3112E+00
     -3.181  0.1761E+00  0.3208E+00
     -3.126  0.1699E+00  0.3301E+00
     -3.071  0.1760E+00  0.3397E+00
     -3.017  0.1558E+00  0.3482E+00
     -2.962  0.9543E-01  0.3535E+00
     -2.907  0.3867E-01  0.3556E+00
     -2.853  0.1717E-01  0.3565E+00
     -2.798  0.1448E-01  0.3573E+00
     -2.743  0.1773E-01  0.3583E+00
     -2.689  0.1816E-01  0.3593E+00
     -2.634  0.1339E-01  0.3600E+00
     -2.579  0.1113E-01  0.3606E+00
     -2.525  0.1361E-01  0.3614E+00
     -2.470  0.1574E-01  0.3622E+00
     -2.415  0.1375E-01  0.3630E+00
     -2.361  0.1412E-01  0.3637E+00
     -2.306  0.1940E-01  0.3648E+00
     -2.251  0.2747E-01  0.3663E+00
     -2.197  0.3360E-01  0.3681E+00
     -2.142  0.2609E-01  0.3696E+00
     -2.087  0.9542E-02  0.3701E+00
     -2.033 -0.2995E-03  0.3701E+00
     -1.978 -0.1505E-02  0.3700E+00
     -1.923  0.1248E-02  0.3701E+00
     -1.869  0.6279E-02  0.3704E+00
     -1.814  0.7770E-02  0.3708E+00
     -1.759  0.3144E-02  0.3710E+00
     -1.705 -0.1066E-02  0.3709E+00
     -1.650  0.6950E-03  0.3710E+00
     -1.595  0.1196E-01  0.3716E+00
     -1.541  0.2699E-01  0.3731E+00
     -1.486  0.3015E-01  0.3747E+00
     -1.431  0.1831E-01  0.3758E+00
     -1.377  0.1065E-01  0.3763E+00
     -1.322  0.1807E-01  0.3773E+00
     -1.267  0.2167E-01  0.3785E+00
     -1.213  0.1402E-01  0.3793E+00
     -1.158  0.8652E-02  0.3797E+00
     -1.104  0.8007E-02  0.3802E+00
     -1.049  0.8443E-02  0.3806E+00
     -0.994  0.5827E-02  0.3810E+00
     -0.940  0.1327E-02  0.3810E+00
     -0.885 -0.6424E-03  0.3810E+00
     -0.830 -0.1006E-02  0.3809E+00
     -0.776  0.4963E-03  0.3810E+00
     -0.721  0.7611E-02  0.3814E+00
     -0.666  0.1501E-01  0.3822E+00
     -0.612  0.1435E-01  0.3830E+00
     -0.557  0.1417E-01  0.3838E+00
     -0.502  0.1492E-01  0.3846E+00
     -0.448  0.7622E-02  0.3850E+00
     -0.393 -0.1983E-03  0.3850E+00
     -0.338 -0.2553E-03  0.3850E+00
     -0.284  0.8752E-02  0.3855E+00
     -0.229  0.1918E-01  0.3865E+00
     -0.174  0.1806E-01  0.3875E+00
     -0.120  0.1373E-01  0.3882E+00
     -0.065  0.1971E-01  0.3893E+00
     -0.010  0.2434E-01  0.3906E+00
      0.044  0.2368E-01  0.3919E+00
      0.099  0.2586E-01  0.3934E+00
      0.154  0.2189E-01  0.3946E+00
      0.208  0.9040E-02  0.3950E+00
      0.263 -0.3323E-03  0.3950E+00
      0.318 -0.1331E-02  0.3950E+00
      0.372  0.5158E-02  0.3952E+00
      0.427  0.1512E-01  0.3961E+00
      0.482  0.1755E-01  0.3970E+00
      0.536  0.1216E-01  0.3977E+00
      0.591  0.5556E-02  0.3980E+00
      0.646  0.5761E-03  0.3980E+00
      0.700 -0.1216E-02  0.3980E+00
      0.755  0.9453E-03  0.3980E+00
      0.810  0.8639E-02  0.3985E+00
      0.864  0.1469E-01  0.3993E+00
      0.919  0.1168E-01  0.3999E+00
      0.974  0.1106E-01  0.4005E+00
      1.028  0.1499E-01  0.4013E+00
      1.083  0.1182E-01  0.4020E+00
      1.138  0.8784E-02  0.4025E+00
      1.192  0.1125E-01  0.4031E+00
      1.247  0.1271E-01  0.4038E+00
      1.302  0.1464E-01  0.4046E+00
      1.356  0.1569E-01  0.4054E+00
      1.411  0.1292E-01  0.4061E+00
      1.466  0.1422E-01  0.4069E+00
      1.520  0.1351E-01  0.4077E+00
      1.575  0.5492E-02  0.4080E+00
      1.630  0.6917E-02  0.4083E+00
      1.684  0.1975E-01  0.4094E+00
      1.739  0.2073E-01  0.4106E+00
      1.793  0.8538E-02  0.4110E+00
      1.848  0.7409E-02  0.4114E+00
      1.903  0.1938E-01  0.4125E+00
      1.957  0.2852E-01  0.4140E+00
      2.012  0.2525E-01  0.4154E+00
      2.067  0.1130E-01  0.4160E+00
      2.121  0.3664E-03  0.4161E+00
      2.176 -0.1888E-02  0.4160E+00
      2.231  0.2119E-02  0.4161E+00
      2.285  0.1145E-01  0.4167E+00
      2.340  0.1525E-01  0.4175E+00
      2.395  0.7047E-02  0.4179E+00
      2.449  0.3284E-02  0.4181E+00
      2.504  0.1494E-01  0.4189E+00
      2.559  0.2547E-01  0.4203E+00
      2.613  0.2009E-01  0.4214E+00
      2.668  0.8624E-02  0.4219E+00
      2.723  0.8160E-03  0.4219E+00
      2.777  0.3411E-02  0.4221E+00
      2.832  0.1976E-01  0.4232E+00
      2.887  0.3428E-01  0.4251E+00
      2.941  0.3511E-01  0.4270E+00
      2.996  0.2663E-01  0.4284E+00
      3.051  0.1135E-01  0.4291E+00
      3.105 -0.5971E-04  0.4291E+00
      3.160 -0.1616E-02  0.4290E+00
      3.215  0.3333E-02  0.4291E+00
      3.269  0.1454E-01  0.4299E+00
      3.324  0.2856E-01  0.4315E+00
      3.379  0.2932E-01  0.4331E+00
      3.433  0.1391E-01  0.4339E+00
      3.488  0.1046E-01  0.4344E+00
      3.543  0.2862E-01  0.4360E+00
      3.597  0.4291E-01  0.4383E+00
      3.652  0.3997E-01  0.4405E+00
      3.707  0.2295E-01  0.4418E+00
      3.761  0.7134E-02  0.4422E+00
      3.816  0.9025E-02  0.4427E+00
      3.871  0.1477E-01  0.4435E+00
      3.925  0.9447E-02  0.4440E+00
      3.980  0.5142E-02  0.4443E+00
      4.035  0.6824E-02  0.4446E+00
      4.089  0.6209E-02  0.4450E+00
      4.144  0.6179E-02  0.4453E+00
      4.199  0.7226E-02  0.4457E+00
      4.253  0.4241E-02  0.4460E+00
      4.308  0.4269E-02  0.4462E+00
      4.363  0.1134E-01  0.4468E+00
      4.417  0.1421E-01  0.4476E+00
      4.472  0.7636E-02  0.4480E+00
      4.527  0.9808E-03  0.4481E+00
      4.581 -0.6319E-03  0.4480E+00
      4.636 -0.2682E-03  0.4480E+00
      4.690 -0.4146E-04  0.4480E+00
      4.745 -0.3090E-05  0.4480E+00
      4.800 -0.1188E-06  0.4480E+00
      4.854 -0.2419E-08  0.4480E+00
      4.909 -0.2642E-10  0.4480E+00
      4.964 -0.1558E-12  0.4480E+00
      5.018 -0.4997E-15  0.4480E+00
      5.073  0.0000E+00  0.4480E+00
      5.128  0.0000E+00  0.4480E+00
      5.182  0.0000E+00  0.4480E+00
      5.237  0.0000E+00  0.4480E+00
      5.292  0.0000E+00  0.4480E+00
      5.346  0.0000E+00  0.4480E+00
      5.401  0.0000E+00  0.4480E+00
