unknown system                          
           1
     5.147737    0.000000    0.000000
     0.000000    5.147737    0.000000
     0.000000    0.000000   35.260000
   Cu   Ag
    16     1
Direct configuration=     1
   0.25000000  0.25000000  0.99705048
   0.75000000  0.25000000  0.99705048
   0.25000000  0.75000000  0.99705048
   0.75000000  0.75000000  0.99705048
   0.00000000  0.00000000  0.04866704
   0.50000000  0.00000000  0.04866704
   0.00000000  0.50000000  0.04866704
   0.50000000  0.50000000  0.04866704
   0.25015056  0.25002907  0.09957908
   0.75015419  0.25014765  0.10003126
   0.25016224  0.75019624  0.09985782
   0.75016160  0.75009497  0.10049362
   0.99882877  0.99928258  0.15043581
   0.50169797  0.99929639  0.15044039
   0.99771930  0.50187769  0.15024743
   0.50280504  0.50186199  0.15025192
   0.25018861  0.33350127  0.20372618
Direct configuration=     2
   0.25000000  0.25000000  0.99705048
   0.75000000  0.25000000  0.99705048
   0.25000000  0.75000000  0.99705048
   0.75000000  0.75000000  0.99705048
   0.00000000  0.00000000  0.04866704
   0.50000000  0.00000000  0.04866704
   0.00000000  0.50000000  0.04866704
   0.50000000  0.50000000  0.04866704
   0.25014984  0.24987524  0.09957238
   0.75015244  0.25014651  0.10001578
   0.25016136  0.75037865  0.09986161
   0.75015983  0.75011644  0.10049367
   0.99947160  0.99983199  0.15053093
   0.50104791  0.99984360  0.15053533
   0.99626542  0.50280638  0.14997690
   0.50424941  0.50279070  0.14998192
   0.25018986  0.33332335  0.20409648
Direct configuration=     3
   0.25000000  0.25000000  0.99705048
   0.75000000  0.25000000  0.99705048
   0.25000000  0.75000000  0.99705048
   0.75000000  0.75000000  0.99705048
   0.00000000  0.00000000  0.04866704
   0.50000000  0.00000000  0.04866704
   0.00000000  0.50000000  0.04866704
   0.50000000  0.50000000  0.04866704
   0.25014813  0.24965207  0.09956170
   0.75014913  0.24997300  0.09997433
   0.25015948  0.75075457  0.09986035
   0.75015657  0.75046084  0.10046703
   1.00046006  1.00085200  0.15069274
   0.50004586  1.00086031  0.15069684
   0.99454663  0.50401666  0.14962020
   0.50595175  0.50400182  0.14962575
   0.25019251  0.33276117  0.20457179
Direct configuration=     4
   0.25000000  0.25000000  0.99705048
   0.75000000  0.25000000  0.99705048
   0.25000000  0.75000000  0.99705048
   0.75000000  0.75000000  0.99705048
   0.00000000  0.00000000  0.04866704
   0.50000000  0.00000000  0.04866704
   0.00000000  0.50000000  0.04866704
   0.50000000  0.50000000  0.04866704
   0.25014420  0.24940744  0.09954188
   0.75014290  0.24936566  0.09987724
   0.25015540  0.75153038  0.09984328
   0.75015007  0.75171734  0.10036837
   1.00176783  1.00267258  0.15095348
   0.49871461  1.00267563  0.15095681
   0.99343717  0.50525090  0.14926507
   0.50703242  0.50524024  0.14927095
   0.25019776  0.33214838  0.20503045
Direct configuration=     5
   0.25000000  0.25000000  0.99705048
   0.75000000  0.25000000  0.99705048
   0.25000000  0.75000000  0.99705048
   0.75000000  0.75000000  0.99705048
   0.00000000  0.00000000  0.04866704
   0.50000000  0.00000000  0.04866704
   0.00000000  0.50000000  0.04866704
   0.50000000  0.50000000  0.04866704
   0.25013657  0.24939107  0.09949986
   0.75013311  0.24857855  0.09975391
   0.25014699  0.75274187  0.09981886
   0.75013940  0.75393578  0.10023966
   1.00272515  1.00498362  0.15125903
   0.49772642  1.00498282  0.15126153
   0.99424244  0.50608571  0.14912175
   0.50618727  0.50608224  0.14912634
   0.25020182  0.33215345  0.20518625
Direct configuration=     6
   0.25000000  0.25000000  0.99705048
   0.75000000  0.25000000  0.99705048
   0.25000000  0.75000000  0.99705048
   0.75000000  0.75000000  0.99705048
   0.00000000  0.00000000  0.04866704
   0.50000000  0.00000000  0.04866704
   0.00000000  0.50000000  0.04866704
   0.50000000  0.50000000  0.04866704
   0.25012201  0.24986655  0.09942283
   0.75012051  0.24936024  0.09979886
   0.25012964  0.75413851  0.09984215
   0.75012631  0.75512538  0.10038807
   1.00287455  1.00706745  0.15153055
   0.49753665  1.00706495  0.15153199
   0.99470015  0.50755874  0.14898885
   0.50568439  0.50755881  0.14899145
   0.25019966  0.33199196  0.20527265
Direct configuration=     7
   0.25000000  0.25000000  0.99705048
   0.75000000  0.25000000  0.99705048
   0.25000000  0.75000000  0.99705048
   0.75000000  0.75000000  0.99705048
   0.00000000  0.00000000  0.04866704
   0.50000000  0.00000000  0.04866704
   0.00000000  0.50000000  0.04866704
   0.50000000  0.50000000  0.04866704
   0.25010387  0.25056660  0.09943328
   0.75010623  0.24995627  0.09986707
   0.25011189  0.75574708  0.09987896
   0.75011015  0.75704067  0.10046500
   1.00291727  1.00901103  0.15171501
   0.49744872  1.00901000  0.15171548
   0.99529273  0.50899167  0.14906556
   0.50504036  0.50899684  0.14906529
   0.25018459  0.33212526  0.20523737
Direct configuration=     8
   0.25000000  0.25000000  0.99705048
   0.75000000  0.25000000  0.99705048
   0.25000000  0.75000000  0.99705048
   0.75000000  0.75000000  0.99705048
   0.00000000  0.00000000  0.04866704
   0.50000000  0.00000000  0.04866704
   0.00000000  0.50000000  0.04866704
   0.50000000  0.50000000  0.04866704
   0.25009155  0.25156641  0.09945941
   0.75009573  0.25134585  0.09993276
   0.25009528  0.75632097  0.09993965
   0.75010306  0.75728176  0.10058292
   1.00283153  1.01011102  0.15181148
   0.49749544  1.01011528  0.15181169
   0.99488096  0.51055410  0.14904259
   0.50541412  0.51055896  0.14904234
   0.25017529  0.33117492  0.20530217
Direct configuration=     9
   0.25000000  0.25000000  0.99705048
   0.75000000  0.25000000  0.99705048
   0.25000000  0.75000000  0.99705048
   0.75000000  0.75000000  0.99705048
   0.00000000  0.00000000  0.04866704
   0.50000000  0.00000000  0.04866704
   0.00000000  0.50000000  0.04866704
   0.50000000  0.50000000  0.04866704
   0.25008917  0.25164811  0.09947065
   0.75009310  0.25130043  0.09993071
   0.25009386  0.75657939  0.09993750
   0.75009922  0.75771930  0.10055983
   1.00282173  1.01040570  0.15182209
   0.49749706  1.01040963  0.15182217
   0.99513374  0.51066584  0.14909651
   0.50515292  0.51067211  0.14909591
   0.25017524  0.33124777  0.20526957
Direct configuration=    10
   0.25000000  0.25000000  0.99705048
   0.75000000  0.25000000  0.99705048
   0.25000000  0.75000000  0.99705048
   0.75000000  0.75000000  0.99705048
   0.00000000  0.00000000  0.04866704
   0.50000000  0.00000000  0.04866704
   0.00000000  0.50000000  0.04866704
   0.50000000  0.50000000  0.04866704
   0.25008543  0.25182798  0.09948314
   0.75008947  0.25144769  0.09994088
   0.25009054  0.75685482  0.09994465
   0.75009475  0.75806972  0.10056179
   1.00279609  1.01077162  0.15183830
   0.49751074  1.01077514  0.15183825
   0.99524214  0.51096982  0.14913585
   0.50503327  0.51097762  0.14913479
   0.25017300  0.33112758  0.20525938
Direct configuration=    11
   0.25000000  0.25000000  0.99705048
   0.75000000  0.25000000  0.99705048
   0.25000000  0.75000000  0.99705048
   0.75000000  0.75000000  0.99705048
   0.00000000  0.00000000  0.04866704
   0.50000000  0.00000000  0.04866704
   0.00000000  0.50000000  0.04866704
   0.50000000  0.50000000  0.04866704
   0.25008094  0.25207233  0.09949605
   0.75008534  0.25172287  0.09995831
   0.25008563  0.75710706  0.09995805
   0.75009047  0.75832770  0.10057988
   1.00276510  1.01115645  0.15185782
   0.49752719  1.01115980  0.15185771
   0.99525261  0.51137529  0.14916401
   0.50500972  0.51138416  0.14916242
   0.25016962  0.33097637  0.20526973
Direct configuration=    12
   0.25000000  0.25000000  0.99705048
   0.75000000  0.25000000  0.99705048
   0.25000000  0.75000000  0.99705048
   0.75000000  0.75000000  0.99705048
   0.00000000  0.00000000  0.04866704
   0.50000000  0.00000000  0.04866704
   0.00000000  0.50000000  0.04866704
   0.50000000  0.50000000  0.04866704
   0.25007590  0.25234996  0.09951137
   0.75008059  0.25202792  0.09997752
   0.25007978  0.75737395  0.09997381
   0.75008554  0.75861219  0.10059928
   1.00273714  1.01158241  0.15188084
   0.49753815  1.01158579  0.15188056
   0.99527834  0.51181187  0.14919922
   0.50496787  0.51182160  0.14919732
   0.25016542  0.33081555  0.20528310
Direct configuration=    13
   0.25000000  0.25000000  0.99705048
   0.75000000  0.25000000  0.99705048
   0.25000000  0.75000000  0.99705048
   0.75000000  0.75000000  0.99705048
   0.00000000  0.00000000  0.04866704
   0.50000000  0.00000000  0.04866704
   0.00000000  0.50000000  0.04866704
   0.50000000  0.50000000  0.04866704
   0.25006993  0.25265241  0.09952897
   0.75007494  0.25236528  0.09999992
   0.25007306  0.75765485  0.09999257
   0.75007900  0.75890858  0.10062273
   1.00270825  1.01203832  0.15190714
   0.49754764  1.01204182  0.15190672
   0.99530128  0.51227836  0.14924014
   0.50492598  0.51228944  0.14923791
   0.25016078  0.33064096  0.20530251
Direct configuration=    14
   0.25000000  0.25000000  0.99705048
   0.75000000  0.25000000  0.99705048
   0.25000000  0.75000000  0.99705048
   0.75000000  0.75000000  0.99705048
   0.00000000  0.00000000  0.04866704
   0.50000000  0.00000000  0.04866704
   0.00000000  0.50000000  0.04866704
   0.50000000  0.50000000  0.04866704
   0.25006309  0.25297153  0.09954921
   0.75006823  0.25271902  0.10002514
   0.25006523  0.75794783  0.10001450
   0.75007183  0.75921994  0.10064939
   1.00267712  1.01251412  0.15193670
   0.49755585  1.01251818  0.15193612
   0.99532853  0.51276103  0.14928846
   0.50487659  0.51277359  0.14928602
   0.25015469  0.33043727  0.20532823
Direct configuration=    15
   0.25000000  0.25000000  0.99705048
   0.75000000  0.25000000  0.99705048
   0.25000000  0.75000000  0.99705048
   0.75000000  0.75000000  0.99705048
   0.00000000  0.00000000  0.04866704
   0.50000000  0.00000000  0.04866704
   0.00000000  0.50000000  0.04866704
   0.50000000  0.50000000  0.04866704
   0.25005487  0.25330069  0.09957248
   0.75005991  0.25309249  0.10005440
   0.25005675  0.75824211  0.10004051
   0.75006328  0.75952467  0.10068111
   1.00264298  1.01299781  0.15197010
   0.49756324  1.01300294  0.15196929
   0.99534998  0.51325182  0.14934342
   0.50483212  0.51326652  0.14934057
   0.25014391  0.33022396  0.20536410
Direct configuration=    16
   0.25000000  0.25000000  0.99705048
   0.75000000  0.25000000  0.99705048
   0.25000000  0.75000000  0.99705048
   0.75000000  0.75000000  0.99705048
   0.00000000  0.00000000  0.04866704
   0.50000000  0.00000000  0.04866704
   0.00000000  0.50000000  0.04866704
   0.50000000  0.50000000  0.04866704
   0.25004613  0.25361680  0.09959793
   0.75005265  0.25343296  0.10008383
   0.25004699  0.75852845  0.10006901
   0.75005609  0.75984729  0.10071224
   1.00260780  1.01347607  0.15200724
   0.49756924  1.01348261  0.15200628
   0.99541004  0.51371767  0.14941076
   0.50474568  0.51373174  0.14940789
   0.25011831  0.32990281  0.20539814
Direct configuration=    17
   0.25000000  0.25000000  0.99705048
   0.75000000  0.25000000  0.99705048
   0.25000000  0.75000000  0.99705048
   0.75000000  0.75000000  0.99705048
   0.00000000  0.00000000  0.04866704
   0.50000000  0.00000000  0.04866704
   0.00000000  0.50000000  0.04866704
   0.50000000  0.50000000  0.04866704
   0.25003854  0.25391506  0.09962170
   0.75003987  0.25386517  0.10012366
   0.25004082  0.75873549  0.10009958
   0.75004134  0.75995780  0.10076271
   1.00255781  1.01385144  0.15203941
   0.49758560  1.01385807  0.15203835
   0.99527725  0.51417958  0.14944599
   0.50484679  0.51418774  0.14944393
   0.25011169  0.32995740  0.20547141
Direct configuration=    18
   0.25000000  0.25000000  0.99705048
   0.75000000  0.25000000  0.99705048
   0.25000000  0.75000000  0.99705048
   0.75000000  0.75000000  0.99705048
   0.00000000  0.00000000  0.04866704
   0.50000000  0.00000000  0.04866704
   0.00000000  0.50000000  0.04866704
   0.50000000  0.50000000  0.04866704
   0.25003786  0.25392062  0.09962267
   0.75003996  0.25385027  0.10012216
   0.25004003  0.75875211  0.10009941
   0.75004146  0.76000225  0.10075891
   1.00256153  1.01387663  0.15204091
   0.49758068  1.01388282  0.15203988
   0.99531488  0.51417780  0.14945290
   0.50480857  0.51418659  0.14945075
   0.25011063  0.32992096  0.20546592
Direct configuration=    19
   0.25000000  0.25000000  0.99705048
   0.75000000  0.25000000  0.99705048
   0.25000000  0.75000000  0.99705048
   0.75000000  0.75000000  0.99705048
   0.00000000  0.00000000  0.04866704
   0.50000000  0.00000000  0.04866704
   0.00000000  0.50000000  0.04866704
   0.50000000  0.50000000  0.04866704
   0.25003686  0.25393283  0.09962397
   0.75003993  0.25383864  0.10012064
   0.25003881  0.75877679  0.10009964
   0.75004155  0.76006084  0.10075499
   1.00256473  1.01391411  0.15204333
   0.49757536  1.01391969  0.15204235
   0.99536038  0.51418543  0.14946226
   0.50476193  0.51419504  0.14945999
   0.25010862  0.32985446  0.20545975
Direct configuration=    20
   0.25000000  0.25000000  0.99705048
   0.75000000  0.25000000  0.99705048
   0.25000000  0.75000000  0.99705048
   0.75000000  0.75000000  0.99705048
   0.00000000  0.00000000  0.04866704
   0.50000000  0.00000000  0.04866704
   0.00000000  0.50000000  0.04866704
   0.50000000  0.50000000  0.04866704
   0.25003550  0.25395409  0.09962581
   0.75003953  0.25383934  0.10012012
   0.25003714  0.75880873  0.10010093
   0.75004139  0.76012467  0.10075284
   1.00256587  1.01396471  0.15204675
   0.49757076  1.01396966  0.15204582
   0.99540369  0.51421100  0.14947293
   0.50471669  0.51422151  0.14947050
   0.25010600  0.32976084  0.20545484
Direct configuration=    21
   0.25000000  0.25000000  0.99705048
   0.75000000  0.25000000  0.99705048
   0.25000000  0.75000000  0.99705048
   0.75000000  0.75000000  0.99705048
   0.00000000  0.00000000  0.04866704
   0.50000000  0.00000000  0.04866704
   0.00000000  0.50000000  0.04866704
   0.50000000  0.50000000  0.04866704
   0.25003399  0.25398779  0.09962831
   0.75003854  0.25387216  0.10012261
   0.25003530  0.75884093  0.10010421
   0.75004071  0.76016606  0.10075621
   1.00256066  1.01401783  0.15205061
   0.49757083  1.01402221  0.15204970
   0.99541842  0.51426423  0.14948129
   0.50469872  0.51427527  0.14947873
   0.25010335  0.32965062  0.20545507
Direct configuration=    22
   0.25000000  0.25000000  0.99705048
   0.75000000  0.25000000  0.99705048
   0.25000000  0.75000000  0.99705048
   0.75000000  0.75000000  0.99705048
   0.00000000  0.00000000  0.04866704
   0.50000000  0.00000000  0.04866704
   0.00000000  0.50000000  0.04866704
   0.50000000  0.50000000  0.04866704
   0.25003252  0.25402992  0.09963146
   0.75003714  0.25392202  0.10012689
   0.25003360  0.75887524  0.10010821
   0.75003941  0.76020100  0.10076168
   1.00255174  1.01407470  0.15205522
   0.49757349  1.01407876  0.15205431
   0.99542252  0.51432803  0.14949011
   0.50469006  0.51433908  0.14948753
   0.25009784  0.32955139  0.20545876
Direct configuration=    23
   0.25000000  0.25000000  0.99705048
   0.75000000  0.25000000  0.99705048
   0.25000000  0.75000000  0.99705048
   0.75000000  0.75000000  0.99705048
   0.00000000  0.00000000  0.04866704
   0.50000000  0.00000000  0.04866704
   0.00000000  0.50000000  0.04866704
   0.50000000  0.50000000  0.04866704
   0.25003064  0.25407409  0.09963599
   0.75003505  0.25397238  0.10013222
   0.25003158  0.75891238  0.10011297
   0.75003741  0.76024155  0.10076736
   1.00254351  1.01413861  0.15206062
   0.49757397  1.01414280  0.15205972
   0.99543091  0.51439071  0.14950104
   0.50467519  0.51440100  0.14949860
   0.25009416  0.32947219  0.20546456
Direct configuration=    24
   0.25000000  0.25000000  0.99705048
   0.75000000  0.25000000  0.99705048
   0.25000000  0.75000000  0.99705048
   0.75000000  0.75000000  0.99705048
   0.00000000  0.00000000  0.04866704
   0.50000000  0.00000000  0.04866704
   0.00000000  0.50000000  0.04866704
   0.50000000  0.50000000  0.04866704
   0.25002828  0.25412174  0.09964053
   0.75003259  0.25402942  0.10013816
   0.25002936  0.75894853  0.10011843
   0.75003452  0.76027763  0.10077438
   1.00253414  1.01420117  0.15206710
   0.49757402  1.01420450  0.15206620
   0.99543215  0.51445741  0.14951277
   0.50466739  0.51446766  0.14951031
   0.25008797  0.32940937  0.20547356
Direct configuration=    25
   0.25000000  0.25000000  0.99705048
   0.75000000  0.25000000  0.99705048
   0.25000000  0.75000000  0.99705048
   0.75000000  0.75000000  0.99705048
   0.00000000  0.00000000  0.04866704
   0.50000000  0.00000000  0.04866704
   0.00000000  0.50000000  0.04866704
   0.50000000  0.50000000  0.04866704
   0.25002553  0.25416452  0.09964643
   0.75002977  0.25407614  0.10014465
   0.25002624  0.75898473  0.10012449
   0.75003216  0.76032069  0.10078098
   1.00252810  1.01426675  0.15207490
   0.49756959  1.01427040  0.15207407
   0.99544374  0.51451569  0.14952654
   0.50464710  0.51452424  0.14952441
   0.25008040  0.32935666  0.20548093
Direct configuration=    26
   0.25000000  0.25000000  0.99705048
   0.75000000  0.25000000  0.99705048
   0.25000000  0.75000000  0.99705048
   0.75000000  0.75000000  0.99705048
   0.00000000  0.00000000  0.04866704
   0.50000000  0.00000000  0.04866704
   0.00000000  0.50000000  0.04866704
   0.50000000  0.50000000  0.04866704
   0.25002306  0.25420395  0.09965082
   0.75002646  0.25413191  0.10015182
   0.25002464  0.75901064  0.10013083
   0.75002763  0.76033656  0.10079072
   1.00251730  1.01431221  0.15208259
   0.49756957  1.01431469  0.15208177
   0.99542392  0.51458115  0.14953548
   0.50465871  0.51459038  0.14953328
   0.25006879  0.32931234  0.20549596
Direct configuration=    27
   0.25000000  0.25000000  0.99705048
   0.75000000  0.25000000  0.99705048
   0.25000000  0.75000000  0.99705048
   0.75000000  0.75000000  0.99705048
   0.00000000  0.00000000  0.04866704
   0.50000000  0.00000000  0.04866704
   0.00000000  0.50000000  0.04866704
   0.50000000  0.50000000  0.04866704
   0.25002170  0.25421270  0.09965351
   0.75002529  0.25413073  0.10015307
   0.25002228  0.75902453  0.10013223
   0.75002751  0.76036698  0.10078989
   1.00251869  1.01433696  0.15208591
   0.49756323  1.01434029  0.15208518
   0.99545206  0.51458072  0.14954346
   0.50462546  0.51458788  0.14954169
   0.25006837  0.32930016  0.20549373
Direct configuration=    28
   0.25000000  0.25000000  0.99705048
   0.75000000  0.25000000  0.99705048
   0.25000000  0.75000000  0.99705048
   0.75000000  0.75000000  0.99705048
   0.00000000  0.00000000  0.04866704
   0.50000000  0.00000000  0.04866704
   0.00000000  0.50000000  0.04866704
   0.50000000  0.50000000  0.04866704
   0.25002159  0.25421382  0.09965361
   0.75002514  0.25413311  0.10015337
   0.25002224  0.75902480  0.10013248
   0.75002726  0.76036592  0.10079042
   1.00251811  1.01433742  0.15208614
   0.49756339  1.01434066  0.15208542
   0.99544995  0.51458320  0.14954357
   0.50462720  0.51459045  0.14954180
   0.25006803  0.32929842  0.20549473
Direct configuration=    29
   0.25000000  0.25000000  0.99705048
   0.75000000  0.25000000  0.99705048
   0.25000000  0.75000000  0.99705048
   0.75000000  0.75000000  0.99705048
   0.00000000  0.00000000  0.04866704
   0.50000000  0.00000000  0.04866704
   0.00000000  0.50000000  0.04866704
   0.50000000  0.50000000  0.04866704
   0.25002129  0.25421599  0.09965406
   0.75002473  0.25413696  0.10015407
   0.25002195  0.75902586  0.10013308
   0.75002681  0.76036548  0.10079139
   1.00251735  1.01433990  0.15208689
   0.49756294  1.01434307  0.15208617
   0.99544769  0.51458701  0.14954431
   0.50462840  0.51459424  0.14954256
   0.25006724  0.32929450  0.20549618
Direct configuration=    30
   0.25000000  0.25000000  0.99705048
   0.75000000  0.25000000  0.99705048
   0.25000000  0.75000000  0.99705048
   0.75000000  0.75000000  0.99705048
   0.00000000  0.00000000  0.04866704
   0.50000000  0.00000000  0.04866704
   0.00000000  0.50000000  0.04866704
   0.50000000  0.50000000  0.04866704
   0.25002078  0.25421935  0.09965478
   0.75002410  0.25414228  0.10015513
   0.25002153  0.75902764  0.10013404
   0.75002608  0.76036561  0.10079278
   1.00251610  1.01434365  0.15208806
   0.49756226  1.01434665  0.15208734
   0.99544532  0.51459244  0.14954561
   0.50462918  0.51459967  0.14954388
   0.25006591  0.32929061  0.20549813
Direct configuration=    31
   0.25000000  0.25000000  0.99705048
   0.75000000  0.25000000  0.99705048
   0.25000000  0.75000000  0.99705048
   0.75000000  0.75000000  0.99705048
   0.00000000  0.00000000  0.04866704
   0.50000000  0.00000000  0.04866704
   0.00000000  0.50000000  0.04866704
   0.50000000  0.50000000  0.04866704
   0.25002008  0.25422360  0.09965570
   0.75002327  0.25414851  0.10015641
   0.25002090  0.75903026  0.10013520
   0.75002514  0.76036697  0.10079439
   1.00251460  1.01434916  0.15208966
   0.49756109  1.01435199  0.15208896
   0.99544336  0.51459897  0.14954752
   0.50462888  0.51460613  0.14954584
   0.25006444  0.32928584  0.20550043
Direct configuration=    32
   0.25000000  0.25000000  0.99705048
   0.75000000  0.25000000  0.99705048
   0.25000000  0.75000000  0.99705048
   0.75000000  0.75000000  0.99705048
   0.00000000  0.00000000  0.04866704
   0.50000000  0.00000000  0.04866704
   0.00000000  0.50000000  0.04866704
   0.50000000  0.50000000  0.04866704
   0.25002008  0.25422360  0.09965570
   0.75002327  0.25414851  0.10015641
   0.25002090  0.75903026  0.10013520
   0.75002514  0.76036697  0.10079439
   1.00251460  1.01434916  0.15208966
   0.49756109  1.01435199  0.15208896
   0.99544336  0.51459897  0.14954752
   0.50462888  0.51460613  0.14954584
   0.25006444  0.32928584  0.20550043
