 vasp.6.1.0 28Jan20 (build May 12 2023 01:18:31) complex                        
  
 executed on             LinuxIFC date 2023.06.17  03:08:54
 running on    4 total cores
 distrk:  each k-point on    4 cores,    1 groups
 distr:  one band on NCORE=   1 cores,    4 groups


--------------------------------------------------------------------------------------------------------


 INCAR:
 POTCAR:    PAW_PBE Cu 22Jun2005                  
 POTCAR:    PAW_PBE Ag 02Apr2005                  
 POTCAR:    PAW_PBE Cu 22Jun2005                  
   VRHFIN =Cu: d10 p1                                                                               
   LEXCH  = PE                                                                                      
   EATOM  =  1390.9808 eV,  102.2342 Ry                                                             
                                                                                                    
   TITEL  = PAW_PBE Cu 22Jun2005                                                                    
   LULTRA =        F    use ultrasoft PP ?                                                          
   IUNSCR =        1    unscreen: 0-lin 1-nonlin 2-no                                               
   RPACOR =    2.000    partial core radius                                                         
   POMASS =   63.546; ZVAL   =   11.000    mass and valenz                                          
   RCORE  =    2.300    outmost cutoff radius                                                       
   RWIGS  =    2.200; RWIGS  =    1.164    wigner-seitz radius (au A)                               
   ENMAX  =  295.446; ENMIN  =  221.585 eV                                                          
   ICORE  =        3    local potential                                                             
   LCOR   =        T    correct aug charges                                                         
   LPAW   =        T    paw PP                                                                      
   EAUG   =  586.980                                                                                
   DEXC   =    0.000                                                                                
   RMAX   =    2.344    core radius for proj-oper                                                   
   RAUG   =    1.300    factor for augmentation sphere                                              
   RDEP   =    2.302    radius for radial grids                                                     
   RDEPT  =    1.771    core radius for aug-charge                                                  
                                                                                                    
   Atomic configuration                                                                             
    9 entries                                                                                       
     n  l   j            E        occ.                                                              
     1  0  0.50     -8850.2468   2.0000                                                             
     2  0  0.50     -1062.3498   2.0000                                                             
     2  1  1.50      -916.8226   6.0000                                                             
     3  0  0.50      -114.6929   2.0000                                                             
     3  1  1.50       -72.1325   6.0000                                                             
     3  2  2.50        -5.0394  10.0000                                                             
     4  0  0.50        -4.6097   1.0000                                                             
     4  1  0.50        -4.0817   0.0000                                                             
     4  3  2.50        -1.3606   0.0000                                                             
   Description                                                                                      
     l       E           TYP  RCUT    TYP  RCUT                                                     
     2     -5.0393973     23  2.200                                                                 
     2     10.8846608     23  2.200                                                                 
     0     -4.6097109     23  2.200                                                                 
     0      8.2520465     23  2.200                                                                 
     1     -2.7211652     23  2.200                                                                 
     1     21.7055443     23  2.200                                                                 
     3      2.7211652     23  2.300                                                                 
  local pseudopotential read in
  partial core-charges read in
  partial kinetic energy density read in
  atomic valenz-charges read in
  non local Contribution for L=           2  read in
    real space projection operators read in
  non local Contribution for L=           2  read in
    real space projection operators read in
  non local Contribution for L=           0  read in
    real space projection operators read in
  non local Contribution for L=           0  read in
    real space projection operators read in
  non local Contribution for L=           1  read in
    real space projection operators read in
  non local Contribution for L=           1  read in
    real space projection operators read in
    PAW grid and wavefunctions read in
 
   number of l-projection  operators is LMAX  =           6
   number of lm-projection operators is LMMAX =          18
 
 POTCAR:    PAW_PBE Ag 02Apr2005                  
   VRHFIN =Ag : s1 d10                                                                              
   LEXCH  = PE                                                                                      
   EATOM  =  1037.2675 eV,   76.2370 Ry                                                             
                                                                                                    
   TITEL  = PAW_PBE Ag 02Apr2005                                                                    
   LULTRA =        F    use ultrasoft PP ?                                                          
   IUNSCR =        1    unscreen: 0-lin 1-nonlin 2-no                                               
   RPACOR =    2.000    partial core radius                                                         
   POMASS =  107.868; ZVAL   =   11.000    mass and valenz                                          
   RCORE  =    2.500    outmost cutoff radius                                                       
   RWIGS  =    2.840; RWIGS  =    1.503    wigner-seitz radius (au A)                               
   ENMAX  =  249.844; ENMIN  =  187.383 eV                                                          
   ICORE  =        3    local potential                                                             
   LCOR   =        T    correct aug charges                                                         
   LPAW   =        T    paw PP                                                                      
   EAUG   =  412.496                                                                                
   DEXC   =    0.000                                                                                
   RMAX   =    2.560    core radius for proj-oper                                                   
   RAUG   =    1.300    factor for augmentation sphere                                              
   RDEP   =    2.576    radius for radial grids                                                     
   RDEPT  =    2.072    core radius for aug-charge                                                  
                                                                                                    
   Atomic configuration                                                                             
   12 entries                                                                                       
     n  l   j            E        occ.                                                              
     1  0  0.50    -25324.9161   2.0000                                                             
     2  0  0.50     -3728.5341   2.0000                                                             
     2  1  1.50     -3344.0404   6.0000                                                             
     3  0  0.50      -683.5581   2.0000                                                             
     3  1  1.50      -557.3225   6.0000                                                             
     3  2  2.50      -358.3853  10.0000                                                             
     4  0  0.50       -95.0341   2.0000                                                             
     4  1  1.50       -58.5511   6.0000                                                             
     4  2  2.50        -7.4440  10.0000                                                             
     5  0  0.50        -4.4045   1.0000                                                             
     5  1  0.50        -1.3606   0.0000                                                             
     4  3  2.50        -1.3606   0.0000                                                             
   Description                                                                                      
     l       E           TYP  RCUT    TYP  RCUT                                                     
     2     -7.4439781     23  2.400                                                                 
     2     -8.8045607     23  2.400                                                                 
     0     -4.4044681     23  2.400                                                                 
     0      1.9520038     23  2.400                                                                 
     1     -1.3605826     23  2.500                                                                 
     1     27.2116520     23  2.500                                                                 
     3     -4.0817478     23  2.400                                                                 
  local pseudopotential read in
  partial core-charges read in
  partial kinetic energy density read in
  atomic valenz-charges read in
  non local Contribution for L=           2  read in
    real space projection operators read in
  non local Contribution for L=           2  read in
    real space projection operators read in
  non local Contribution for L=           0  read in
    real space projection operators read in
  non local Contribution for L=           0  read in
    real space projection operators read in
  non local Contribution for L=           1  read in
    real space projection operators read in
  non local Contribution for L=           1  read in
    real space projection operators read in
    PAW grid and wavefunctions read in
 
   number of l-projection  operators is LMAX  =           6
   number of lm-projection operators is LMMAX =          18
 
 Optimization of the real space projectors (new method)

 maximal supplied QI-value         = 16.25
 optimisation between [QCUT,QGAM] = [  9.91, 19.83] = [ 27.52,110.08] Ry 
 Optimized for a Real-space Cutoff    1.64 Angstroem

   l    n(q)    QCUT    max X(q) W(low)/X(q) W(high)/X(q)  e(spline) 
   2      9     9.914     4.610    0.13E-03    0.16E-03    0.22E-06
   2      9     9.914     8.522    0.22E-03    0.27E-03    0.38E-06
   0     10     9.914    51.609    0.51E-04    0.44E-04    0.14E-06
   0     10     9.914    27.747    0.48E-04    0.41E-04    0.13E-06
   1      9     9.914    20.408    0.16E-04    0.53E-04    0.12E-06
   1      9     9.914    13.425    0.14E-04    0.45E-04    0.11E-06
 Optimization of the real space projectors (new method)

 maximal supplied QI-value         = 15.12
 optimisation between [QCUT,QGAM] = [  9.98, 19.96] = [ 27.88,111.51] Ry 
 Optimized for a Real-space Cutoff    1.55 Angstroem

   l    n(q)    QCUT    max X(q) W(low)/X(q) W(high)/X(q)  e(spline) 
   2      8     9.978    53.897    0.14E-03    0.18E-04    0.10E-06
   2      8     9.978    52.416    0.14E-03    0.16E-04    0.11E-06
   0      9     9.978   122.045    0.49E-04    0.35E-04    0.80E-07
   0      9     9.978    73.629    0.45E-04    0.33E-04    0.77E-07
   1      9     9.978    15.255    0.10E-03    0.60E-04    0.12E-06
   1      9     9.978     9.562    0.85E-04    0.48E-04    0.10E-06
  PAW_PBE Cu 22Jun2005                  :
 energy of atom  1       EATOM=-1390.9808
 kinetic energy error for atom=    0.0292 (will be added to EATOM!!)
  PAW_PBE Ag 02Apr2005                  :
 energy of atom  2       EATOM=-1037.2675
 kinetic energy error for atom=    0.0139 (will be added to EATOM!!)
 
 
 POSCAR: Cu Ag
  positions in direct lattice
  No initial velocities read in
 exchange correlation table for  LEXCH =        8
   RHO(1)=    0.500       N(1)  =     2000
   RHO(2)=  100.500       N(2)  =     4000

 VTST: version 4.0, (05/15/20)

 CHAIN: initializing optimizer
 
 OPT: Using VASP Conjugate-Gradient optimizer
 CHAIN: Read ICHAIN            0
 
 POSCAR: Cu Ag
  positions in direct lattice
  No initial velocities read in
 


--------------------------------------------------------------------------------------------------------


 ion  position               nearest neighbor table
   1  0.250  0.250  0.997-   5 2.57   6 2.57   7 2.57   8 2.57   2 2.57   3 2.57   3 2.57   2 2.57

   2  0.750  0.250  0.997-   5 2.57   6 2.57   7 2.57   8 2.57   1 2.57   4 2.57   4 2.57   1 2.57

   3  0.250  0.750  0.997-   5 2.57   6 2.57   7 2.57   8 2.57   1 2.57   4 2.57   1 2.57   4 2.57

   4  0.750  0.750  0.997-   5 2.57   6 2.57   7 2.57   8 2.57   2 2.57   3 2.57   2 2.57   3 2.57

   5  0.000  0.000  0.049-   1 2.57   2 2.57   3 2.57   4 2.57   9 2.57  10 2.57  11 2.57  12 2.57
                             6 2.57   7 2.57   7 2.57   6 2.57
   6  0.500  0.000  0.049-   1 2.57   2 2.57   3 2.57   4 2.57   9 2.57  10 2.57  11 2.57  12 2.57
                             5 2.57   8 2.57   8 2.57   5 2.57
   7  0.000  0.500  0.049-   1 2.57   2 2.57   3 2.57   4 2.57   9 2.57  10 2.57  11 2.57  12 2.57
                             5 2.57   8 2.57   5 2.57   8 2.57
   8  0.500  0.500  0.049-   1 2.57   2 2.57   3 2.57   4 2.57   9 2.57  10 2.57  11 2.57  12 2.57
                             6 2.57   7 2.57   6 2.57   7 2.57
   9  0.250  0.250  0.100-   5 2.57   6 2.57   7 2.57   8 2.57  10 2.57  11 2.57  11 2.57  10 2.57
                            15 2.57  16 2.57  13 2.57  14 2.57
  10  0.750  0.250  0.100-   5 2.57   6 2.57   7 2.57   8 2.57   9 2.57  12 2.57  12 2.57   9 2.57
                            15 2.57  16 2.57  13 2.57  14 2.57
  11  0.250  0.750  0.100-   5 2.57   6 2.57   7 2.57   8 2.57   9 2.57  12 2.57   9 2.57  12 2.57
                            15 2.57  16 2.57  13 2.57  14 2.57
  12  0.750  0.750  0.100-   5 2.57   6 2.57   7 2.57   8 2.57  10 2.57  11 2.57  10 2.57  11 2.57
                            15 2.57  16 2.57  13 2.57  14 2.57
  13  0.000  0.000  0.152-  14 2.57  15 2.57  15 2.57  14 2.57   9 2.57  10 2.57  11 2.57  12 2.57

  14  0.500  0.000  0.152-  13 2.57  16 2.57  16 2.57  13 2.57   9 2.57  10 2.57  11 2.57  12 2.57

  15  0.000  0.500  0.152-  17 2.23  16 2.57  13 2.57  13 2.57  16 2.57  10 2.57  11 2.57  12 2.57
                             9 2.57
  16  0.500  0.500  0.152-  17 2.21  15 2.57  14 2.57  14 2.57  15 2.57  10 2.57  11 2.57  12 2.57
                             9 2.57
  17  0.255  0.467  0.203-  16 2.21  15 2.23
 
  LATTYP: Found a simple tetragonal cell.
 ALAT       =     5.1477373670
 C/A-ratio  =     6.8496112925
  
  Lattice vectors:
  
 A1 = (   5.1477373670,   0.0000000000,   0.0000000000)
 A2 = (   0.0000000000,   5.1477373670,   0.0000000000)
 A3 = (   0.0000000000,   0.0000000000,  35.2600000000)


Analysis of symmetry for initial positions (statically):
=====================================================================
 Subroutine PRICEL returns:
 Original cell was already a primitive cell.
 

 Routine SETGRP: Setting up the symmetry group for a 
 simple tetragonal supercell.


 Subroutine GETGRP returns: Found  1 space group operations
 (whereof  1 operations were pure point group operations)
 out of a pool of 16 trial point group operations.


The static configuration has the point symmetry C_1 .


Analysis of symmetry for dynamics (positions and initial velocities):
=====================================================================
 Subroutine PRICEL returns:
 Original cell was already a primitive cell.
 

 Routine SETGRP: Setting up the symmetry group for a 
 simple tetragonal supercell.


 Subroutine GETGRP returns: Found  1 space group operations
 (whereof  1 operations were pure point group operations)
 out of a pool of 16 trial point group operations.


The dynamic configuration has the point symmetry C_1 .


Analysis of constrained symmetry for selective dynamics:
=====================================================================
 Subroutine PRICEL returns:
 Original cell was already a primitive cell.
 

 Routine SETGRP: Setting up the symmetry group for a 
 simple tetragonal supercell.


 Subroutine GETGRP returns: Found  1 space group operations
 (whereof  1 operations were pure point group operations)
 out of a pool of 16 trial point group operations.


The constrained configuration has the point symmetry C_1 .


 Subroutine INISYM returns: Found  1 space group operations
 (whereof  1 operations are pure point group operations),
 and found     1 'primitive' translations


----------------------------------------------------------------------------------------

                                     Primitive cell                                     

  volume of cell :     934.3618

  direct lattice vectors                    reciprocal lattice vectors
     5.147737367  0.000000000  0.000000000     0.194260105  0.000000000  0.000000000
     0.000000000  5.147737367  0.000000000     0.000000000  0.194260105  0.000000000
     0.000000000  0.000000000 35.260000000     0.000000000  0.000000000  0.028360749

  length of vectors
     5.147737367  5.147737367 35.260000000     0.194260105  0.194260105  0.028360749

  position of ions in fractional coordinates (direct lattice)
     0.250000000  0.250000000  0.997050482
     0.750000000  0.250000000  0.997050482
     0.250000000  0.750000000  0.997050482
     0.750000000  0.750000000  0.997050482
     0.000000000  0.000000000  0.048667045
     0.500000000  0.000000000  0.048667045
     0.000000000  0.500000000  0.048667045
     0.500000000  0.500000000  0.048667045
     0.250000000  0.250000000  0.100283607
     0.750000000  0.250000000  0.100283607
     0.250000000  0.750000000  0.100283607
     0.750000000  0.750000000  0.100283607
     0.000000000  0.000000000  0.151900170
     0.500000000  0.000000000  0.151900170
     0.000000000  0.500000000  0.151900170
     0.500000000  0.500000000  0.151900170
     0.254558441  0.466690476  0.202949518

  ion indices of the primitive-cell ions
   primitive index   ion index
                 1           1
                 2           2
                 3           3
                 4           4
                 5           5
                 6           6
                 7           7
                 8           8
                 9           9
                10          10
                11          11
                12          12
                13          13
                14          14
                15          15
                16          16
                17          17

----------------------------------------------------------------------------------------

 
 
 KPOINTS: K-Points                                

Automatic generation of k-mesh.
Space group operators:
 irot       det(A)        alpha          n_x          n_y          n_z        tau_x        tau_y        tau_z
    1     1.000000     0.000000     1.000000     0.000000     0.000000     0.000000     0.000000     0.000000
 
 Subroutine IBZKPT returns following result:
 ===========================================
 
 Found      8 irreducible k-points:
 
 Following reciprocal coordinates:
            Coordinates               Weight
  0.125000  0.125000  0.000000      2.000000
 -0.125000  0.125000  0.000000      2.000000
  0.375000  0.125000  0.000000      2.000000
 -0.125000  0.375000  0.000000      2.000000
 -0.375000  0.125000  0.000000      2.000000
  0.125000  0.375000  0.000000      2.000000
  0.375000  0.375000  0.000000      2.000000
 -0.375000  0.375000  0.000000      2.000000
 
 Following cartesian coordinates:
            Coordinates               Weight
  0.024283  0.024283  0.000000      2.000000
 -0.024283  0.024283  0.000000      2.000000
  0.072848  0.024283  0.000000      2.000000
 -0.024283  0.072848  0.000000      2.000000
 -0.072848  0.024283  0.000000      2.000000
  0.024283  0.072848  0.000000      2.000000
  0.072848  0.072848  0.000000      2.000000
 -0.072848  0.072848  0.000000      2.000000
 


--------------------------------------------------------------------------------------------------------




 Dimension of arrays:
   k-points           NKPTS =      8   k-points in BZ     NKDIM =      8   number of bands    NBANDS=    112
   number of dos      NEDOS =    301   number of ions     NIONS =     17
   non local maximal  LDIM  =      6   non local SUM 2l+1 LMDIM =     18
   total plane-waves  NPLWV = 290304
   max r-space proj   IRMAX =   5811   max aug-charges    IRDMAX= 122398
   dimension x,y,z NGX =    36 NGY =   36 NGZ =  224
   dimension x,y,z NGXF=    72 NGYF=   72 NGZF=  448
   support grid    NGXF=   144 NGYF=  144 NGZF=  896
   ions per type =              16   1
   NGX,Y,Z   is equivalent  to a cutoff of  11.63, 11.63, 10.56 a.u.
   NGXF,Y,Z  is equivalent  to a cutoff of  23.25, 23.25, 21.12 a.u.

 SYSTEM =  unknown system                          
 POSCAR =  Cu Ag                                   

 Startparameter for this run:
   NWRITE =      2    write-flag & timer
   PREC   = accura    normal or accurate (medium, high low for compatibility)
   ISTART =      0    job   : 0-new  1-cont  2-samecut
   ICHARG =      2    charge: 1-file 2-atom 10-const
   ISPIN  =      1    spin polarized calculation?
   LNONCOLLINEAR =      F non collinear calculations
   LSORBIT =      F    spin-orbit coupling
   INIWAV =      1    electr: 0-lowe 1-rand  2-diag
   LASPH  =      F    aspherical Exc in radial PAW
   METAGGA=      F    non-selfconsistent MetaGGA calc.

 Electronic Relaxation 1
   ENCUT  =  380.0 eV  27.93 Ry    5.28 a.u.   8.18  8.18 56.04*2*pi/ulx,y,z
   ENINI  =  380.0     initial cutoff
   ENAUG  =  587.0 eV  augmentation charge cutoff
   NELM   =    400;   NELMIN=  2; NELMDL= -5     # of ELM steps 
   EDIFF  = 0.1E-06   stopping-criterion for ELM
   LREAL  =      T    real-space projection
   NLSPLINE    = F    spline interpolate recip. space projectors
   LCOMPAT=      F    compatible to vasp.4.4
   GGA_COMPAT  = T    GGA compatible to vasp.4.4-vasp.4.6
   LMAXPAW     = -100 max onsite density
   LMAXMIX     =    2 max onsite mixed and CHGCAR
   VOSKOWN=      0    Vosko Wilk Nusair interpolation
   ROPT   =   -0.00025  -0.00025
 Ionic relaxation
   EDIFFG = -.2E-02   stopping-criterion for IOM
   NSW    =    300    number of steps for IOM
   NBLOCK =      1;   KBLOCK =    300    inner block; outer block 
   IBRION =      2    ionic relax: 0-MD 1-quasi-New 2-CG
   NFREE  =      1    steps in history (QN), initial steepest desc. (CG)
   ISIF   =      2    stress and relaxation
   IWAVPR =     11    prediction:  0-non 1-charg 2-wave 3-comb
   ISYM   =      2    0-nonsym 1-usesym 2-fastsym
   LCORR  =      T    Harris-Foulkes like correction to forces

   POTIM  = 0.5000    time-step for ionic-motion
   TEIN   =    0.0    initial temperature
   TEBEG  =    0.0;   TEEND  =   0.0 temperature during run
   SMASS  =  -3.00    Nose mass-parameter (am)
   estimated Nose-frequenzy (Omega)   =  0.10E-29 period in steps = 0.13E+47 mass=  -0.606E-27a.u.
   SCALEE = 1.0000    scale energy and forces
   NPACO  =    256;   APACO  = 16.0  distance and # of slots for P.C.
   PSTRESS=    0.0 pullay stress

  Mass of Ions in am
   POMASS =  63.55107.87
  Ionic Valenz
   ZVAL   =  11.00 11.00
  Atomic Wigner-Seitz radii
   RWIGS  =  -1.00 -1.00
  virtual crystal weights 
   VCA    =   1.00  1.00
   NELECT =     187.0000    total number of electrons
   NUPDOWN=      -1.0000    fix difference up-down

 DOS related values:
   EMIN   =  10.00;   EMAX   =-10.00  energy-range for DOS
   EFERMI =   0.00
   ISMEAR =     1;   SIGMA  =   0.10  broadening in eV -4-tet -1-fermi 0-gaus

 Electronic relaxation 2 (details)
   IALGO  =     38    algorithm
   LDIAG  =      T    sub-space diagonalisation (order eigenvalues)
   LSUBROT=      F    optimize rotation matrix (better conditioning)
   TURBO    =      0    0=normal 1=particle mesh
   IRESTART =      0    0=no restart 2=restart with 2 vectors
   NREBOOT  =      0    no. of reboots
   NMIN     =      0    reboot dimension
   EREF     =   0.00    reference energy to select bands
   IMIX   =      4    mixing-type and parameters
     AMIX     =   0.40;   BMIX     =  1.00
     AMIX_MAG =   1.60;   BMIX_MAG =  1.00
     AMIN     =   0.10
     WC   =   100.;   INIMIX=   1;  MIXPRE=   1;  MAXMIX= -45

 Intra band minimization:
   WEIMIN = 0.0010     energy-eigenvalue tresh-hold
   EBREAK =  0.22E-09  absolut break condition
   DEPER  =   0.30     relativ break condition  

   TIME   =   0.40     timestep for ELM

  volume/ion in A,a.u.               =      54.96       370.90
  Fermi-wavevector in a.u.,A,eV,Ry     =   0.957599  1.809600 12.476485  0.916996
  Thomas-Fermi vector in A             =   2.086631
 
 Write flags
   LWAVE        =      F    write WAVECAR
   LDOWNSAMPLE  =      F    k-point downsampling of WAVECAR
   LCHARG       =      F    write CHGCAR
   LVTOT        =      F    write LOCPOT, total local potential
   LVHAR        =      F    write LOCPOT, Hartree potential only
   LELF         =      F    write electronic localiz. function (ELF)
   LORBIT       =      0    0 simple, 1 ext, 2 COOP (PROOUT), +10 PAW based schemes


 Dipole corrections
   LMONO  =      F    monopole corrections only (constant potential shift)
   LDIPOL =      F    correct potential (dipole corrections)
   IDIPOL =      0    1-x, 2-y, 3-z, 4-all directions 
   EPSILON=  1.0000000 bulk dielectric constant

 Exchange correlation treatment:
   GGA     =    --    GGA type
   LEXCH   =     8    internal setting for exchange type
   VOSKOWN=      0    Vosko Wilk Nusair interpolation
   LHFCALC =     F    Hartree Fock is set to
   LHFONE  =     F    Hartree Fock one center treatment
   AEXX    =    0.0000 exact exchange contribution

 Linear response parameters
   LEPSILON=     F    determine dielectric tensor
   LRPA    =     F    only Hartree local field effects (RPA)
   LNABLA  =     F    use nabla operator in PAW spheres
   LVEL    =     F    velocity operator in full k-point grid
   LINTERFAST=   F  fast interpolation
   KINTER  =     0    interpolate to denser k-point grid
   CSHIFT  =0.1000    complex shift for real part using Kramers Kronig
   OMEGAMAX=  -1.0    maximum frequency
   DEG_THRESHOLD= 0.2000000E-02 threshold for treating states as degnerate
   RTIME   =   -0.100 relaxation time in fs
  (WPLASMAI=    0.000 imaginary part of plasma frequency in eV, 0.658/RTIME)
   DFIELD  = 0.0000000 0.0000000 0.0000000 field for delta impulse in time
 
 Orbital magnetization related:
   ORBITALMAG=     F  switch on orbital magnetization
   LCHIMAG   =     F  perturbation theory with respect to B field
   DQ        =  0.001000  dq finite difference perturbation B field
   LLRAUG    =     F  two centre corrections for induced B field



--------------------------------------------------------------------------------------------------------


 conjugate gradient relaxation of ions
   using selective dynamics as specified on POSCAR
 charge density and potential will be updated during run
 non-spin polarized calculation
 Variant of blocked Davidson
 Davidson routine will perform the subspace rotation
 perform sub-space diagonalisation
    after iterative eigenvector-optimisation
 modified Broyden-mixing scheme, WC =      100.0
 initial mixing is a Kerker type mixing with AMIX =  0.4000 and BMIX =      1.0000
 Hartree-type preconditioning will be used
 using additional bands           18
 real space projection scheme for non local part
 use partial core corrections
 calculate Harris-corrections to forces 
   (improved forces if not selfconsistent)
 use gradient corrections 
 use of overlap-Matrix (Vanderbilt PP)
 Methfessel and Paxton  Order N= 1 SIGMA  =   0.10


--------------------------------------------------------------------------------------------------------


  energy-cutoff  :      380.00
  volume of cell :      934.36
      direct lattice vectors                 reciprocal lattice vectors
     5.147737367  0.000000000  0.000000000     0.194260105  0.000000000  0.000000000
     0.000000000  5.147737367  0.000000000     0.000000000  0.194260105  0.000000000
     0.000000000  0.000000000 35.260000000     0.000000000  0.000000000  0.028360749

  length of vectors
     5.147737367  5.147737367 35.260000000     0.194260105  0.194260105  0.028360749


 
 k-points in units of 2pi/SCALE and weight: K-Points                                
   0.02428251  0.02428251  0.00000000       0.125
  -0.02428251  0.02428251  0.00000000       0.125
   0.07284754  0.02428251  0.00000000       0.125
  -0.02428251  0.07284754  0.00000000       0.125
  -0.07284754  0.02428251  0.00000000       0.125
   0.02428251  0.07284754  0.00000000       0.125
   0.07284754  0.07284754  0.00000000       0.125
  -0.07284754  0.07284754  0.00000000       0.125
 
 k-points in reciprocal lattice and weights: K-Points                                
   0.12500000  0.12500000  0.00000000       0.125
  -0.12500000  0.12500000  0.00000000       0.125
   0.37500000  0.12500000  0.00000000       0.125
  -0.12500000  0.37500000  0.00000000       0.125
  -0.37500000  0.12500000  0.00000000       0.125
   0.12500000  0.37500000  0.00000000       0.125
   0.37500000  0.37500000  0.00000000       0.125
  -0.37500000  0.37500000  0.00000000       0.125
 
 position of ions in fractional coordinates (direct lattice) 
   0.25000000  0.25000000  0.99705048
   0.75000000  0.25000000  0.99705048
   0.25000000  0.75000000  0.99705048
   0.75000000  0.75000000  0.99705048
   0.00000000  0.00000000  0.04866704
   0.50000000  0.00000000  0.04866704
   0.00000000  0.50000000  0.04866704
   0.50000000  0.50000000  0.04866704
   0.25000000  0.25000000  0.10028361
   0.75000000  0.25000000  0.10028361
   0.25000000  0.75000000  0.10028361
   0.75000000  0.75000000  0.10028361
   0.00000000  0.00000000  0.15190017
   0.50000000  0.00000000  0.15190017
   0.00000000  0.50000000  0.15190017
   0.50000000  0.50000000  0.15190017
   0.25455844  0.46669048  0.20294952
 
 position of ions in cartesian coordinates  (Angst):
   1.28693434  1.28693434 35.15600000
   3.86080303  1.28693434 35.15600000
   1.28693434  3.86080303 35.15600000
   3.86080303  3.86080303 35.15600000
   0.00000000  0.00000000  1.71600000
   2.57386868  0.00000000  1.71600000
   0.00000000  2.57386868  1.71600000
   2.57386868  2.57386868  1.71600000
   1.28693434  1.28693434  3.53600000
   3.86080303  1.28693434  3.53600000
   1.28693434  3.86080303  3.53600000
   3.86080303  3.86080303  3.53600000
   0.00000000  0.00000000  5.35600000
   2.57386868  0.00000000  5.35600000
   0.00000000  2.57386868  5.35600000
   2.57386868  2.57386868  5.35600000
   1.31040000  2.40240000  7.15600000
 


--------------------------------------------------------------------------------------------------------


 k-point   1 :   0.1250 0.1250 0.0000  plane waves:   15739
 k-point   2 :  -0.1250 0.1250 0.0000  plane waves:   15739
 k-point   3 :   0.3750 0.1250 0.0000  plane waves:   15695
 k-point   4 :  -0.1250 0.3750 0.0000  plane waves:   15695
 k-point   5 :  -0.3750 0.1250 0.0000  plane waves:   15695
 k-point   6 :   0.1250 0.3750 0.0000  plane waves:   15695
 k-point   7 :   0.3750 0.3750 0.0000  plane waves:   15772
 k-point   8 :  -0.3750 0.3750 0.0000  plane waves:   15772

 maximum and minimum number of plane-waves per node :     15772    15695

 maximum number of plane-waves:     15772
 maximum index in each direction: 
   IXMAX=    8   IYMAX=    8   IZMAX=   56
   IXMIN=   -8   IYMIN=   -8   IZMIN=  -56


 serial   3D FFT for wavefunctions
 parallel 3D FFT for charge:
    minimum data exchange during FFTs selected (reduces bandwidth)


 total amount of memory used by VASP MPI-rank0   234585. kBytes
=======================================================================

   base      :      30000. kBytes
   nonlr-proj:      16579. kBytes
   fftplans  :      85862. kBytes
   grid      :      44250. kBytes
   one-center:        264. kBytes
   wavefun   :      57630. kBytes
 
     INWAV:  cpu time    0.0001: real time    0.0002
 Broyden mixing: mesh for mixing (old mesh)
   NGX = 17   NGY = 17   NGZ =113
  (NGX  = 72   NGY  = 72   NGZ  =448)
  gives a total of  32657 points

 initial charge density was supplied:
 charge density of overlapping atoms calculated
 number of electron     187.0000000 magnetization 
 keeping initial charge density in first step


--------------------------------------------------------------------------------------------------------


 Maximum index for non-local projection operator         5601
 Maximum index for augmentation-charges        29612 (set IRDMAX)


--------------------------------------------------------------------------------------------------------


 First call to EWALD:  gamma=   0.181
 Maximum number of real-space cells 5x 5x 1
 Maximum number of reciprocal cells 2x 2x 9

    FEWALD:  cpu time    0.0021: real time    0.0197


--------------------------------------- Iteration      1(   1)  ---------------------------------------


    POTLOK:  cpu time    0.2643: real time    0.2754
    SETDIJ:  cpu time    0.1854: real time    0.1894
     EDDAV:  cpu time    9.3820: real time    9.4059
       DOS:  cpu time    0.0014: real time    0.0025
    --------------------------------------------
      LOOP:  cpu time    9.8331: real time    9.8733

 eigenvalue-minimisations  :  1792
 total energy-change (2. order) : 0.1508637E+04  (-0.6293225E+04)
 number of electron     187.0000000 magnetization 
 augmentation part      187.0000000 magnetization 

 Free energy of the ion-electron system (eV)
  ---------------------------------------------------
  alpha Z        PSCENC =       228.37091057
  Ewald energy   TEWEN  =    195494.97807217
  -Hartree energ DENC   =   -217407.32810043
  -exchange      EXHF   =         0.00000000
  -V(xc)+E(xc)   XCENC  =       716.59002609
  PAW double counting   =     20654.76870738   -22302.12474825
  entropy T*S    EENTRO =         0.00133217
  eigenvalues    EBANDS =       830.90215451
  atomic energy  EATOM  =     23292.47908388
  Solvation  Ediel_sol  =         0.00000000
  ---------------------------------------------------
  free energy    TOTEN  =      1508.63743808 eV

  energy without entropy =     1508.63610591  energy(sigma->0) =     1508.63699402


--------------------------------------------------------------------------------------------------------




--------------------------------------- Iteration      1(   2)  ---------------------------------------


     EDDAV:  cpu time    9.3569: real time    9.3567
       DOS:  cpu time    0.0009: real time    0.0009
    --------------------------------------------
      LOOP:  cpu time    9.3578: real time    9.3576

 eigenvalue-minimisations  :  1792
 total energy-change (2. order) :-0.1431308E+04  (-0.1378287E+04)
 number of electron     187.0000000 magnetization 
 augmentation part      187.0000000 magnetization 

 Free energy of the ion-electron system (eV)
  ---------------------------------------------------
  alpha Z        PSCENC =       228.37091057
  Ewald energy   TEWEN  =    195494.97807217
  -Hartree energ DENC   =   -217407.32810043
  -exchange      EXHF   =         0.00000000
  -V(xc)+E(xc)   XCENC  =       716.59002609
  PAW double counting   =     20654.76870738   -22302.12474825
  entropy T*S    EENTRO =        -0.00041297
  eigenvalues    EBANDS =      -600.40406163
  atomic energy  EATOM  =     23292.47908388
  Solvation  Ediel_sol  =         0.00000000
  ---------------------------------------------------
  free energy    TOTEN  =        77.32947680 eV

  energy without entropy =       77.32988977  energy(sigma->0) =       77.32961445


--------------------------------------------------------------------------------------------------------




--------------------------------------- Iteration      1(   3)  ---------------------------------------


     EDDAV:  cpu time   10.2845: real time   10.2840
       DOS:  cpu time    0.0010: real time    0.0010
    --------------------------------------------
      LOOP:  cpu time   10.2855: real time   10.2849

 eigenvalue-minimisations  :  2032
 total energy-change (2. order) :-0.1372110E+03  (-0.1242746E+03)
 number of electron     187.0000000 magnetization 
 augmentation part      187.0000000 magnetization 

 Free energy of the ion-electron system (eV)
  ---------------------------------------------------
  alpha Z        PSCENC =       228.37091057
  Ewald energy   TEWEN  =    195494.97807217
  -Hartree energ DENC   =   -217407.32810043
  -exchange      EXHF   =         0.00000000
  -V(xc)+E(xc)   XCENC  =       716.59002609
  PAW double counting   =     20654.76870738   -22302.12474825
  entropy T*S    EENTRO =        -0.00518952
  eigenvalues    EBANDS =      -737.61025649
  atomic energy  EATOM  =     23292.47908388
  Solvation  Ediel_sol  =         0.00000000
  ---------------------------------------------------
  free energy    TOTEN  =       -59.88149462 eV

  energy without entropy =      -59.87630510  energy(sigma->0) =      -59.87976478


--------------------------------------------------------------------------------------------------------




--------------------------------------- Iteration      1(   4)  ---------------------------------------


     EDDAV:  cpu time   11.1781: real time   11.1774
       DOS:  cpu time    0.0010: real time    0.0010
    --------------------------------------------
      LOOP:  cpu time   11.1791: real time   11.1784

 eigenvalue-minimisations  :  2264
 total energy-change (2. order) :-0.8745124E+01  (-0.8601686E+01)
 number of electron     187.0000000 magnetization 
 augmentation part      187.0000000 magnetization 

 Free energy of the ion-electron system (eV)
  ---------------------------------------------------
  alpha Z        PSCENC =       228.37091057
  Ewald energy   TEWEN  =    195494.97807217
  -Hartree energ DENC   =   -217407.32810043
  -exchange      EXHF   =         0.00000000
  -V(xc)+E(xc)   XCENC  =       716.59002609
  PAW double counting   =     20654.76870738   -22302.12474825
  entropy T*S    EENTRO =        -0.00580668
  eigenvalues    EBANDS =      -746.35476365
  atomic energy  EATOM  =     23292.47908388
  Solvation  Ediel_sol  =         0.00000000
  ---------------------------------------------------
  free energy    TOTEN  =       -68.62661893 eV

  energy without entropy =      -68.62081225  energy(sigma->0) =      -68.62468337


--------------------------------------------------------------------------------------------------------




--------------------------------------- Iteration      1(   5)  ---------------------------------------


     EDDAV:  cpu time   10.6534: real time   10.6527
       DOS:  cpu time    0.0010: real time    0.0010
    CHARGE:  cpu time    0.8994: real time    0.9030
    MIXING:  cpu time    0.0082: real time    0.0082
    --------------------------------------------
      LOOP:  cpu time   11.5620: real time   11.5649

 eigenvalue-minimisations  :  2128
 total energy-change (2. order) :-0.2126669E+00  (-0.2122497E+00)
 number of electron     187.0000016 magnetization 
 augmentation part      109.8552320 magnetization 

 Broyden mixing:
  rms(total) = 0.28755E+01    rms(broyden)= 0.28754E+01
  rms(prec ) = 0.29433E+01
  weight for this iteration     100.00

 Free energy of the ion-electron system (eV)
  ---------------------------------------------------
  alpha Z        PSCENC =       228.37091057
  Ewald energy   TEWEN  =    195494.97807217
  -Hartree energ DENC   =   -217407.32810043
  -exchange      EXHF   =         0.00000000
  -V(xc)+E(xc)   XCENC  =       716.59002609
  PAW double counting   =     20654.76870738   -22302.12474825
  entropy T*S    EENTRO =        -0.00587430
  eigenvalues    EBANDS =      -746.56736293
  atomic energy  EATOM  =     23292.47908388
  Solvation  Ediel_sol  =         0.00000000
  ---------------------------------------------------
  free energy    TOTEN  =       -68.83928583 eV

  energy without entropy =      -68.83341154  energy(sigma->0) =      -68.83732773


--------------------------------------------------------------------------------------------------------




--------------------------------------- Iteration      1(   6)  ---------------------------------------


    POTLOK:  cpu time    0.2451: real time    0.2527
    SETDIJ:  cpu time    0.1843: real time    0.1863
     EDDAV:  cpu time   10.1129: real time   10.1121
       DOS:  cpu time    0.0010: real time    0.0010
    CHARGE:  cpu time    0.8800: real time    0.8822
    MIXING:  cpu time    0.0081: real time    0.0081
    --------------------------------------------
      LOOP:  cpu time   11.4313: real time   11.4424

 eigenvalue-minimisations  :  1984
 total energy-change (2. order) : 0.6560950E+01  (-0.1536067E+02)
 number of electron     187.0000018 magnetization 
 augmentation part      122.3650874 magnetization 

 Broyden mixing:
  rms(total) = 0.15655E+01    rms(broyden)= 0.15652E+01
  rms(prec ) = 0.16137E+01
  weight for this iteration     100.00

 eigenvalues of (default mixing * dielectric matrix)
  average eigenvalue GAMMA=   0.6539
  0.6539

 Free energy of the ion-electron system (eV)
  ---------------------------------------------------
  alpha Z        PSCENC =       228.37091057
  Ewald energy   TEWEN  =    195494.97807217
  -Hartree energ DENC   =   -217006.55112737
  -exchange      EXHF   =         0.00000000
  -V(xc)+E(xc)   XCENC  =       695.67289022
  PAW double counting   =     20904.65256073   -22469.82192359
  entropy T*S    EENTRO =        -0.01260952
  eigenvalues    EBANDS =     -1202.04619319
  atomic energy  EATOM  =     23292.47908388
  Solvation  Ediel_sol  =         0.00000000
  ---------------------------------------------------
  free energy    TOTEN  =       -62.27833611 eV

  energy without entropy =      -62.26572659  energy(sigma->0) =      -62.27413293


--------------------------------------------------------------------------------------------------------




--------------------------------------- Iteration      1(   7)  ---------------------------------------


    POTLOK:  cpu time    0.2421: real time    0.2495
    SETDIJ:  cpu time    0.1841: real time    0.1860
     EDDAV:  cpu time   10.8631: real time   10.8623
       DOS:  cpu time    0.0010: real time    0.0010
    CHARGE:  cpu time    0.8876: real time    0.8899
    MIXING:  cpu time    0.0081: real time    0.0081
    --------------------------------------------
      LOOP:  cpu time   12.1860: real time   12.1969

 eigenvalue-minimisations  :  2176
 total energy-change (2. order) : 0.6074580E+01  (-0.3067587E+01)
 number of electron     187.0000018 magnetization 
 augmentation part      118.3874352 magnetization 

 Broyden mixing:
  rms(total) = 0.48395E+00    rms(broyden)= 0.48388E+00
  rms(prec ) = 0.50117E+00
  weight for this iteration     100.00

 eigenvalues of (default mixing * dielectric matrix)
  average eigenvalue GAMMA=   0.5503
  0.6426  0.4580

 Free energy of the ion-electron system (eV)
  ---------------------------------------------------
  alpha Z        PSCENC =       228.37091057
  Ewald energy   TEWEN  =    195494.97807217
  -Hartree energ DENC   =   -217237.05946172
  -exchange      EXHF   =         0.00000000
  -V(xc)+E(xc)   XCENC  =       702.39683604
  PAW double counting   =     21296.43177577   -22933.52057715
  entropy T*S    EENTRO =        -0.01290597
  eigenvalues    EBANDS =      -900.26748930
  atomic energy  EATOM  =     23292.47908388
  Solvation  Ediel_sol  =         0.00000000
  ---------------------------------------------------
  free energy    TOTEN  =       -56.20375572 eV

  energy without entropy =      -56.19084975  energy(sigma->0) =      -56.19945373


--------------------------------------------------------------------------------------------------------




--------------------------------------- Iteration      1(   8)  ---------------------------------------


    POTLOK:  cpu time    0.2436: real time    0.2511
    SETDIJ:  cpu time    0.1845: real time    0.1864
     EDDAV:  cpu time   11.0460: real time   11.0451
       DOS:  cpu time    0.0010: real time    0.0010
    CHARGE:  cpu time    0.8796: real time    0.8821
    MIXING:  cpu time    0.0077: real time    0.0077
    --------------------------------------------
      LOOP:  cpu time   12.3623: real time   12.3733

 eigenvalue-minimisations  :  2224
 total energy-change (2. order) :-0.1549811E+00  (-0.6689033E+00)
 number of electron     187.0000018 magnetization 
 augmentation part      117.7691034 magnetization 

 Broyden mixing:
  rms(total) = 0.31727E+00    rms(broyden)= 0.31723E+00
  rms(prec ) = 0.32687E+00
  weight for this iteration     100.00

 eigenvalues of (default mixing * dielectric matrix)
  average eigenvalue GAMMA=   0.7974
  1.4244  0.6176  0.3501

 Free energy of the ion-electron system (eV)
  ---------------------------------------------------
  alpha Z        PSCENC =       228.37091057
  Ewald energy   TEWEN  =    195494.97807217
  -Hartree energ DENC   =   -217245.94267968
  -exchange      EXHF   =         0.00000000
  -V(xc)+E(xc)   XCENC  =       702.63402209
  PAW double counting   =     21442.82244519   -23092.66406957
  entropy T*S    EENTRO =        -0.01471548
  eigenvalues    EBANDS =      -879.02180596
  atomic energy  EATOM  =     23292.47908388
  Solvation  Ediel_sol  =         0.00000000
  ---------------------------------------------------
  free energy    TOTEN  =       -56.35873680 eV

  energy without entropy =      -56.34402132  energy(sigma->0) =      -56.35383164


--------------------------------------------------------------------------------------------------------




--------------------------------------- Iteration      1(   9)  ---------------------------------------


    POTLOK:  cpu time    0.2426: real time    0.2504
    SETDIJ:  cpu time    0.1842: real time    0.1861
     EDDAV:  cpu time   11.3238: real time   11.3229
       DOS:  cpu time    0.0010: real time    0.0010
    CHARGE:  cpu time    0.8861: real time    0.8885
    MIXING:  cpu time    0.0081: real time    0.0081
    --------------------------------------------
      LOOP:  cpu time   12.6458: real time   12.6570

 eigenvalue-minimisations  :  2296
 total energy-change (2. order) :-0.7284603E-01  (-0.2332428E+00)
 number of electron     187.0000018 magnetization 
 augmentation part      117.2194734 magnetization 

 Broyden mixing:
  rms(total) = 0.30120E+00    rms(broyden)= 0.30119E+00
  rms(prec ) = 0.31482E+00
  weight for this iteration     100.00

 eigenvalues of (default mixing * dielectric matrix)
  average eigenvalue GAMMA=   0.8267
  1.8722  0.5327  0.5327  0.3693

 Free energy of the ion-electron system (eV)
  ---------------------------------------------------
  alpha Z        PSCENC =       228.37091057
  Ewald energy   TEWEN  =    195494.97807217
  -Hartree energ DENC   =   -217263.37710627
  -exchange      EXHF   =         0.00000000
  -V(xc)+E(xc)   XCENC  =       702.28879306
  PAW double counting   =     21714.30134570   -23384.12277579
  entropy T*S    EENTRO =        -0.01517532
  eigenvalues    EBANDS =      -841.33473083
  atomic energy  EATOM  =     23292.47908388
  Solvation  Ediel_sol  =         0.00000000
  ---------------------------------------------------
  free energy    TOTEN  =       -56.43158283 eV

  energy without entropy =      -56.41640751  energy(sigma->0) =      -56.42652439


--------------------------------------------------------------------------------------------------------




--------------------------------------- Iteration      1(  10)  ---------------------------------------


    POTLOK:  cpu time    0.2426: real time    0.2502
    SETDIJ:  cpu time    0.1841: real time    0.1860
     EDDAV:  cpu time   10.4608: real time   10.4600
       DOS:  cpu time    0.0010: real time    0.0010
    CHARGE:  cpu time    0.8811: real time    0.8835
    MIXING:  cpu time    0.0081: real time    0.0081
    --------------------------------------------
      LOOP:  cpu time   11.7787: real time   11.7888

 eigenvalue-minimisations  :  2072
 total energy-change (2. order) : 0.4830290E-01  (-0.1097284E+00)
 number of electron     187.0000018 magnetization 
 augmentation part      117.3124965 magnetization 

 Broyden mixing:
  rms(total) = 0.19763E+00    rms(broyden)= 0.19762E+00
  rms(prec ) = 0.22063E+00
  weight for this iteration     100.00

 eigenvalues of (default mixing * dielectric matrix)
  average eigenvalue GAMMA=   0.8815
  2.1735  0.7459  0.7459  0.4259  0.3161

 Free energy of the ion-electron system (eV)
  ---------------------------------------------------
  alpha Z        PSCENC =       228.37091057
  Ewald energy   TEWEN  =    195494.97807217
  -Hartree energ DENC   =   -217255.80111365
  -exchange      EXHF   =         0.00000000
  -V(xc)+E(xc)   XCENC  =       701.60568232
  PAW double counting   =     21810.01471239   -23484.38209082
  entropy T*S    EENTRO =        -0.01555402
  eigenvalues    EBANDS =      -843.63298276
  atomic energy  EATOM  =     23292.47908388
  Solvation  Ediel_sol  =         0.00000000
  ---------------------------------------------------
  free energy    TOTEN  =       -56.38327992 eV

  energy without entropy =      -56.36772590  energy(sigma->0) =      -56.37809525


--------------------------------------------------------------------------------------------------------




--------------------------------------- Iteration      1(  11)  ---------------------------------------


    POTLOK:  cpu time    0.2448: real time    0.2527
    SETDIJ:  cpu time    0.1847: real time    0.1867
     EDDAV:  cpu time   12.1531: real time   12.1521
       DOS:  cpu time    0.0010: real time    0.0010
    CHARGE:  cpu time    0.8748: real time    0.8771
    MIXING:  cpu time    0.0079: real time    0.0079
    --------------------------------------------
      LOOP:  cpu time   13.4654: real time   13.4774

 eigenvalue-minimisations  :  2512
 total energy-change (2. order) : 0.7977529E-01  (-0.6508914E-01)
 number of electron     187.0000018 magnetization 
 augmentation part      117.5592950 magnetization 

 Broyden mixing:
  rms(total) = 0.70689E-01    rms(broyden)= 0.70667E-01
  rms(prec ) = 0.88991E-01
  weight for this iteration     100.00

 eigenvalues of (default mixing * dielectric matrix)
  average eigenvalue GAMMA=   0.8871
  2.2831  0.8381  0.8381  0.6629  0.4059  0.2944

 Free energy of the ion-electron system (eV)
  ---------------------------------------------------
  alpha Z        PSCENC =       228.37091057
  Ewald energy   TEWEN  =    195494.97807217
  -Hartree energ DENC   =   -217243.78059052
  -exchange      EXHF   =         0.00000000
  -V(xc)+E(xc)   XCENC  =       700.77316904
  PAW double counting   =     21884.61955516   -23560.68384208
  entropy T*S    EENTRO =        -0.01628595
  eigenvalues    EBANDS =      -853.04357690
  atomic energy  EATOM  =     23292.47908388
  Solvation  Ediel_sol  =         0.00000000
  ---------------------------------------------------
  free energy    TOTEN  =       -56.30350464 eV

  energy without entropy =      -56.28721869  energy(sigma->0) =      -56.29807599


--------------------------------------------------------------------------------------------------------




--------------------------------------- Iteration      1(  12)  ---------------------------------------


    POTLOK:  cpu time    0.2435: real time    0.2511
    SETDIJ:  cpu time    0.1845: real time    0.1865
     EDDAV:  cpu time   11.9993: real time   11.9983
       DOS:  cpu time    0.0010: real time    0.0010
    CHARGE:  cpu time    0.8749: real time    0.8772
    MIXING:  cpu time    0.0086: real time    0.0086
    --------------------------------------------
      LOOP:  cpu time   13.3118: real time   13.3227

 eigenvalue-minimisations  :  2472
 total energy-change (2. order) : 0.6136801E-02  (-0.2626941E-01)
 number of electron     187.0000018 magnetization 
 augmentation part      117.7528206 magnetization 

 Broyden mixing:
  rms(total) = 0.31265E-01    rms(broyden)= 0.31255E-01
  rms(prec ) = 0.33965E-01
  weight for this iteration     100.00

 eigenvalues of (default mixing * dielectric matrix)
  average eigenvalue GAMMA=   0.8656
  2.1673  0.9384  0.8498  0.8498  0.5750  0.3971  0.2818

 Free energy of the ion-electron system (eV)
  ---------------------------------------------------
  alpha Z        PSCENC =       228.37091057
  Ewald energy   TEWEN  =    195494.97807217
  -Hartree energ DENC   =   -217242.41297427
  -exchange      EXHF   =         0.00000000
  -V(xc)+E(xc)   XCENC  =       700.49221931
  PAW double counting   =     21904.56642897   -23580.40249557
  entropy T*S    EENTRO =        -0.01674905
  eigenvalues    EBANDS =      -854.35186384
  atomic energy  EATOM  =     23292.47908388
  Solvation  Ediel_sol  =         0.00000000
  ---------------------------------------------------
  free energy    TOTEN  =       -56.29736784 eV

  energy without entropy =      -56.28061879  energy(sigma->0) =      -56.29178482


--------------------------------------------------------------------------------------------------------




--------------------------------------- Iteration      1(  13)  ---------------------------------------


    POTLOK:  cpu time    0.2439: real time    0.2515
    SETDIJ:  cpu time    0.1845: real time    0.1863
     EDDAV:  cpu time   10.2646: real time   10.2638
       DOS:  cpu time    0.0010: real time    0.0010
    CHARGE:  cpu time    0.8746: real time    0.8769
    MIXING:  cpu time    0.0090: real time    0.0090
    --------------------------------------------
      LOOP:  cpu time   11.5776: real time   11.5884

 eigenvalue-minimisations  :  2024
 total energy-change (2. order) :-0.4455476E-02  (-0.8063187E-02)
 number of electron     187.0000018 magnetization 
 augmentation part      117.7353626 magnetization 

 Broyden mixing:
  rms(total) = 0.22221E-01    rms(broyden)= 0.22217E-01
  rms(prec ) = 0.23466E-01
  weight for this iteration     100.00

 eigenvalues of (default mixing * dielectric matrix)
  average eigenvalue GAMMA=   0.8949
  1.9320  1.9320  0.8302  0.8302  0.5418  0.2824  0.4313  0.3793

 Free energy of the ion-electron system (eV)
  ---------------------------------------------------
  alpha Z        PSCENC =       228.37091057
  Ewald energy   TEWEN  =    195494.97807217
  -Hartree energ DENC   =   -217251.42951769
  -exchange      EXHF   =         0.00000000
  -V(xc)+E(xc)   XCENC  =       700.61057581
  PAW double counting   =     21906.50754489   -23582.98777742
  entropy T*S    EENTRO =        -0.01682513
  eigenvalues    EBANDS =      -844.81389040
  atomic energy  EATOM  =     23292.47908388
  Solvation  Ediel_sol  =         0.00000000
  ---------------------------------------------------
  free energy    TOTEN  =       -56.30182331 eV

  energy without entropy =      -56.28499819  energy(sigma->0) =      -56.29621494


--------------------------------------------------------------------------------------------------------




--------------------------------------- Iteration      1(  14)  ---------------------------------------


    POTLOK:  cpu time    0.2439: real time    0.2516
    SETDIJ:  cpu time    0.1843: real time    0.1860
     EDDAV:  cpu time   10.5427: real time   10.5419
       DOS:  cpu time    0.0010: real time    0.0010
    CHARGE:  cpu time    0.8743: real time    0.8766
    MIXING:  cpu time    0.0088: real time    0.0088
    --------------------------------------------
      LOOP:  cpu time   11.8552: real time   11.8660

 eigenvalue-minimisations  :  2096
 total energy-change (2. order) : 0.3126821E-03  (-0.9807288E-03)
 number of electron     187.0000018 magnetization 
 augmentation part      117.7072645 magnetization 

 Broyden mixing:
  rms(total) = 0.19954E-01    rms(broyden)= 0.19952E-01
  rms(prec ) = 0.20914E-01
  weight for this iteration     100.00

 eigenvalues of (default mixing * dielectric matrix)
  average eigenvalue GAMMA=   0.9584
  2.3264  2.3264  0.7882  0.7882  0.6868  0.6868  0.3961  0.2835  0.3433

 Free energy of the ion-electron system (eV)
  ---------------------------------------------------
  alpha Z        PSCENC =       228.37091057
  Ewald energy   TEWEN  =    195494.97807217
  -Hartree energ DENC   =   -217257.97552217
  -exchange      EXHF   =         0.00000000
  -V(xc)+E(xc)   XCENC  =       700.66992138
  PAW double counting   =     21908.16200434   -23585.15737715
  entropy T*S    EENTRO =        -0.01670956
  eigenvalues    EBANDS =      -837.81189410
  atomic energy  EATOM  =     23292.47908388
  Solvation  Ediel_sol  =         0.00000000
  ---------------------------------------------------
  free energy    TOTEN  =       -56.30151063 eV

  energy without entropy =      -56.28480107  energy(sigma->0) =      -56.29594078


--------------------------------------------------------------------------------------------------------




--------------------------------------- Iteration      1(  15)  ---------------------------------------


    POTLOK:  cpu time    0.2449: real time    0.2524
    SETDIJ:  cpu time    0.1846: real time    0.1863
     EDDAV:  cpu time   10.0809: real time   10.0801
       DOS:  cpu time    0.0010: real time    0.0010
    CHARGE:  cpu time    0.8759: real time    0.8784
    MIXING:  cpu time    0.0095: real time    0.0095
    --------------------------------------------
      LOOP:  cpu time   11.3967: real time   11.4077

 eigenvalue-minimisations  :  1976
 total energy-change (2. order) : 0.7887199E-03  (-0.3921193E-03)
 number of electron     187.0000018 magnetization 
 augmentation part      117.7293655 magnetization 

 Broyden mixing:
  rms(total) = 0.65039E-02    rms(broyden)= 0.65028E-02
  rms(prec ) = 0.75748E-02
  weight for this iteration     100.00

 eigenvalues of (default mixing * dielectric matrix)
  average eigenvalue GAMMA=   0.9843
  2.6268  1.7817  1.2777  0.8885  0.7947  0.7947  0.6517  0.3992  0.2832  0.3451

 Free energy of the ion-electron system (eV)
  ---------------------------------------------------
  alpha Z        PSCENC =       228.37091057
  Ewald energy   TEWEN  =    195494.97807217
  -Hartree energ DENC   =   -217261.71163296
  -exchange      EXHF   =         0.00000000
  -V(xc)+E(xc)   XCENC  =       700.62489144
  PAW double counting   =     21910.48307583   -23587.69034962
  entropy T*S    EENTRO =        -0.01669745
  eigenvalues    EBANDS =      -833.81807577
  atomic energy  EATOM  =     23292.47908388
  Solvation  Ediel_sol  =         0.00000000
  ---------------------------------------------------
  free energy    TOTEN  =       -56.30072191 eV

  energy without entropy =      -56.28402446  energy(sigma->0) =      -56.29515609


--------------------------------------------------------------------------------------------------------




--------------------------------------- Iteration      1(  16)  ---------------------------------------


    POTLOK:  cpu time    0.2458: real time    0.2538
    SETDIJ:  cpu time    0.1842: real time    0.1861
     EDDAV:  cpu time   10.9817: real time   10.9808
       DOS:  cpu time    0.0010: real time    0.0010
    CHARGE:  cpu time    0.8648: real time    0.8670
    MIXING:  cpu time    0.0096: real time    0.0096
    --------------------------------------------
      LOOP:  cpu time   12.2872: real time   12.2983

 eigenvalue-minimisations  :  2208
 total energy-change (2. order) :-0.7544045E-04  (-0.1347907E-03)
 number of electron     187.0000018 magnetization 
 augmentation part      117.7402819 magnetization 

 Broyden mixing:
  rms(total) = 0.79304E-02    rms(broyden)= 0.79296E-02
  rms(prec ) = 0.85669E-02
  weight for this iteration     100.00

 eigenvalues of (default mixing * dielectric matrix)
  average eigenvalue GAMMA=   0.9872
  2.6251  1.8200  1.8200  0.8147  0.8147  0.8364  0.6253  0.2833  0.4690  0.4048
  0.3459

 Free energy of the ion-electron system (eV)
  ---------------------------------------------------
  alpha Z        PSCENC =       228.37091057
  Ewald energy   TEWEN  =    195494.97807217
  -Hartree energ DENC   =   -217264.43739301
  -exchange      EXHF   =         0.00000000
  -V(xc)+E(xc)   XCENC  =       700.60324509
  PAW double counting   =     21910.25964812   -23587.59745920
  entropy T*S    EENTRO =        -0.01670536
  eigenvalues    EBANDS =      -830.94019961
  atomic energy  EATOM  =     23292.47908388
  Solvation  Ediel_sol  =         0.00000000
  ---------------------------------------------------
  free energy    TOTEN  =       -56.30079735 eV

  energy without entropy =      -56.28409199  energy(sigma->0) =      -56.29522890


--------------------------------------------------------------------------------------------------------




--------------------------------------- Iteration      1(  17)  ---------------------------------------


    POTLOK:  cpu time    0.2452: real time    0.2529
    SETDIJ:  cpu time    0.1841: real time    0.1859
     EDDAV:  cpu time   11.7883: real time   11.7874
       DOS:  cpu time    0.0010: real time    0.0010
    CHARGE:  cpu time    0.8657: real time    0.8679
    MIXING:  cpu time    0.0093: real time    0.0093
    --------------------------------------------
      LOOP:  cpu time   13.0936: real time   13.1044

 eigenvalue-minimisations  :  2416
 total energy-change (2. order) : 0.1679598E-04  (-0.6388163E-04)
 number of electron     187.0000018 magnetization 
 augmentation part      117.7267390 magnetization 

 Broyden mixing:
  rms(total) = 0.42940E-02    rms(broyden)= 0.42929E-02
  rms(prec ) = 0.48205E-02
  weight for this iteration     100.00

 eigenvalues of (default mixing * dielectric matrix)
  average eigenvalue GAMMA=   1.0269
  2.7055  2.7055  1.5733  0.8990  0.8990  0.7062  0.7062  0.7047  0.2834  0.3464
  0.4026  0.3909

 Free energy of the ion-electron system (eV)
  ---------------------------------------------------
  alpha Z        PSCENC =       228.37091057
  Ewald energy   TEWEN  =    195494.97807217
  -Hartree energ DENC   =   -217267.90052801
  -exchange      EXHF   =         0.00000000
  -V(xc)+E(xc)   XCENC  =       700.63771307
  PAW double counting   =     21907.21871184   -23584.66186957
  entropy T*S    EENTRO =        -0.01669011
  eigenvalues    EBANDS =      -827.40618439
  atomic energy  EATOM  =     23292.47908388
  Solvation  Ediel_sol  =         0.00000000
  ---------------------------------------------------
  free energy    TOTEN  =       -56.30078056 eV

  energy without entropy =      -56.28409044  energy(sigma->0) =      -56.29521718


--------------------------------------------------------------------------------------------------------




--------------------------------------- Iteration      1(  18)  ---------------------------------------


    POTLOK:  cpu time    0.2461: real time    0.2535
    SETDIJ:  cpu time    0.1840: real time    0.1858
     EDDAV:  cpu time   10.5195: real time   10.5187
       DOS:  cpu time    0.0010: real time    0.0010
    CHARGE:  cpu time    0.8647: real time    0.8668
    MIXING:  cpu time    0.0100: real time    0.0100
    --------------------------------------------
      LOOP:  cpu time   11.8253: real time   11.8359

 eigenvalue-minimisations  :  2088
 total energy-change (2. order) :-0.2363934E-03  (-0.8894071E-04)
 number of electron     187.0000018 magnetization 
 augmentation part      117.7058996 magnetization 

 Broyden mixing:
  rms(total) = 0.78624E-02    rms(broyden)= 0.78617E-02
  rms(prec ) = 0.81505E-02
  weight for this iteration     100.00

 eigenvalues of (default mixing * dielectric matrix)
  average eigenvalue GAMMA=   1.0793
  2.8610  2.1068  2.1068  1.4651  1.0227  0.8339  0.8339  0.6923  0.6923  0.2833
  0.3458  0.4009  0.3863

 Free energy of the ion-electron system (eV)
  ---------------------------------------------------
  alpha Z        PSCENC =       228.37091057
  Ewald energy   TEWEN  =    195494.97807217
  -Hartree energ DENC   =   -217272.36590598
  -exchange      EXHF   =         0.00000000
  -V(xc)+E(xc)   XCENC  =       700.68349304
  PAW double counting   =     21902.71220381   -23580.22197618
  entropy T*S    EENTRO =        -0.01667517
  eigenvalues    EBANDS =      -822.92022308
  atomic energy  EATOM  =     23292.47908388
  Solvation  Ediel_sol  =         0.00000000
  ---------------------------------------------------
  free energy    TOTEN  =       -56.30101695 eV

  energy without entropy =      -56.28434178  energy(sigma->0) =      -56.29545856


--------------------------------------------------------------------------------------------------------




--------------------------------------- Iteration      1(  19)  ---------------------------------------


    POTLOK:  cpu time    0.2470: real time    0.2544
    SETDIJ:  cpu time    0.1842: real time    0.1858
     EDDAV:  cpu time    9.8039: real time    9.8031
       DOS:  cpu time    0.0010: real time    0.0010
    CHARGE:  cpu time    0.8650: real time    0.8674
    MIXING:  cpu time    0.0099: real time    0.0099
    --------------------------------------------
      LOOP:  cpu time   11.1110: real time   11.1215

 eigenvalue-minimisations  :  1904
 total energy-change (2. order) :-0.1686795E-03  (-0.8196935E-04)
 number of electron     187.0000018 magnetization 
 augmentation part      117.7311239 magnetization 

 Broyden mixing:
  rms(total) = 0.30101E-02    rms(broyden)= 0.30085E-02
  rms(prec ) = 0.32044E-02
  weight for this iteration     100.00

 eigenvalues of (default mixing * dielectric matrix)
  average eigenvalue GAMMA=   1.1013
  2.8608  2.8608  2.4399  1.3284  0.8737  0.8737  0.8036  0.8036  0.6278  0.5357
  0.2833  0.4034  0.3457  0.3774

 Free energy of the ion-electron system (eV)
  ---------------------------------------------------
  alpha Z        PSCENC =       228.37091057
  Ewald energy   TEWEN  =    195494.97807217
  -Hartree energ DENC   =   -217272.53672170
  -exchange      EXHF   =         0.00000000
  -V(xc)+E(xc)   XCENC  =       700.63358568
  PAW double counting   =     21903.07121139   -23580.34805613
  entropy T*S    EENTRO =        -0.01670341
  eigenvalues    EBANDS =      -822.93256808
  atomic energy  EATOM  =     23292.47908388
  Solvation  Ediel_sol  =         0.00000000
  ---------------------------------------------------
  free energy    TOTEN  =       -56.30118563 eV

  energy without entropy =      -56.28448222  energy(sigma->0) =      -56.29561783


--------------------------------------------------------------------------------------------------------




--------------------------------------- Iteration      1(  20)  ---------------------------------------


    POTLOK:  cpu time    0.2474: real time    0.2547
    SETDIJ:  cpu time    0.1840: real time    0.1860
     EDDAV:  cpu time   10.2427: real time   10.2419
       DOS:  cpu time    0.0010: real time    0.0010
    CHARGE:  cpu time    0.8663: real time    0.8686
    MIXING:  cpu time    0.0105: real time    0.0105
    --------------------------------------------
      LOOP:  cpu time   11.5518: real time   11.5626

 eigenvalue-minimisations  :  2016
 total energy-change (2. order) :-0.1712975E-03  (-0.1118611E-04)
 number of electron     187.0000018 magnetization 
 augmentation part      117.7335363 magnetization 

 Broyden mixing:
  rms(total) = 0.31135E-02    rms(broyden)= 0.31123E-02
  rms(prec ) = 0.32529E-02
  weight for this iteration     100.00

 eigenvalues of (default mixing * dielectric matrix)
  average eigenvalue GAMMA=   1.1416
  4.1657  2.7818  2.0347  1.3519  1.0513  1.0513  0.7993  0.7993  0.6613  0.6613
  0.2833  0.4016  0.3798  0.3506  0.3506

 Free energy of the ion-electron system (eV)
  ---------------------------------------------------
  alpha Z        PSCENC =       228.37091057
  Ewald energy   TEWEN  =    195494.97807217
  -Hartree energ DENC   =   -217273.72941925
  -exchange      EXHF   =         0.00000000
  -V(xc)+E(xc)   XCENC  =       700.63376869
  PAW double counting   =     21902.58929917   -23579.86329988
  entropy T*S    EENTRO =        -0.01670604
  eigenvalues    EBANDS =      -821.74306623
  atomic energy  EATOM  =     23292.47908388
  Solvation  Ediel_sol  =         0.00000000
  ---------------------------------------------------
  free energy    TOTEN  =       -56.30135693 eV

  energy without entropy =      -56.28465089  energy(sigma->0) =      -56.29578825


--------------------------------------------------------------------------------------------------------




--------------------------------------- Iteration      1(  21)  ---------------------------------------


    POTLOK:  cpu time    0.2485: real time    0.2562
    SETDIJ:  cpu time    0.1842: real time    0.1861
     EDDAV:  cpu time   10.2393: real time   10.2384
       DOS:  cpu time    0.0010: real time    0.0010
    CHARGE:  cpu time    0.8655: real time    0.8678
    MIXING:  cpu time    0.0098: real time    0.0098
    --------------------------------------------
      LOOP:  cpu time   11.5483: real time   11.5593

 eigenvalue-minimisations  :  2016
 total energy-change (2. order) :-0.1263562E-03  (-0.1000897E-04)
 number of electron     187.0000018 magnetization 
 augmentation part      117.7256325 magnetization 

 Broyden mixing:
  rms(total) = 0.85651E-03    rms(broyden)= 0.85248E-03
  rms(prec ) = 0.98480E-03
  weight for this iteration     100.00

 eigenvalues of (default mixing * dielectric matrix)
  average eigenvalue GAMMA=   1.1956
  4.7538  2.6956  1.9861  1.9861  1.0334  1.0334  0.8101  0.8101  0.8813  0.6804
  0.6804  0.2833  0.4027  0.3916  0.3456  0.3559

 Free energy of the ion-electron system (eV)
  ---------------------------------------------------
  alpha Z        PSCENC =       228.37091057
  Ewald energy   TEWEN  =    195494.97807217
  -Hartree energ DENC   =   -217275.22534002
  -exchange      EXHF   =         0.00000000
  -V(xc)+E(xc)   XCENC  =       700.65087498
  PAW double counting   =     21902.04635395   -23579.39629503
  entropy T*S    EENTRO =        -0.01669406
  eigenvalues    EBANDS =      -820.18844971
  atomic energy  EATOM  =     23292.47908388
  Solvation  Ediel_sol  =         0.00000000
  ---------------------------------------------------
  free energy    TOTEN  =       -56.30148328 eV

  energy without entropy =      -56.28478922  energy(sigma->0) =      -56.29591859


--------------------------------------------------------------------------------------------------------




--------------------------------------- Iteration      1(  22)  ---------------------------------------


    POTLOK:  cpu time    0.2489: real time    0.2567
    SETDIJ:  cpu time    0.1842: real time    0.1862
     EDDAV:  cpu time   10.3624: real time   10.3616
       DOS:  cpu time    0.0010: real time    0.0010
    CHARGE:  cpu time    0.8662: real time    0.8685
    MIXING:  cpu time    0.0105: real time    0.0105
    --------------------------------------------
      LOOP:  cpu time   11.6732: real time   11.6844

 eigenvalue-minimisations  :  2048
 total energy-change (2. order) :-0.1765478E-03  (-0.2799359E-05)
 number of electron     187.0000018 magnetization 
 augmentation part      117.7232201 magnetization 

 Broyden mixing:
  rms(total) = 0.98305E-03    rms(broyden)= 0.97968E-03
  rms(prec ) = 0.10472E-02
  weight for this iteration     100.00

 eigenvalues of (default mixing * dielectric matrix)
  average eigenvalue GAMMA=   1.2219
  5.4391  2.6652  2.0797  2.0797  1.3059  0.9593  0.9593  0.7882  0.7882  0.6633
  0.6633  0.6045  0.2833  0.4028  0.3923  0.3459  0.3525

 Free energy of the ion-electron system (eV)
  ---------------------------------------------------
  alpha Z        PSCENC =       228.37091057
  Ewald energy   TEWEN  =    195494.97807217
  -Hartree energ DENC   =   -217275.88998200
  -exchange      EXHF   =         0.00000000
  -V(xc)+E(xc)   XCENC  =       700.65321647
  PAW double counting   =     21902.70020358   -23580.07422610
  entropy T*S    EENTRO =        -0.01668693
  eigenvalues    EBANDS =      -819.50225145
  atomic energy  EATOM  =     23292.47908388
  Solvation  Ediel_sol  =         0.00000000
  ---------------------------------------------------
  free energy    TOTEN  =       -56.30165983 eV

  energy without entropy =      -56.28497290  energy(sigma->0) =      -56.29609752


--------------------------------------------------------------------------------------------------------




--------------------------------------- Iteration      1(  23)  ---------------------------------------


    POTLOK:  cpu time    0.2497: real time    0.2573
    SETDIJ:  cpu time    0.1842: real time    0.1862
     EDDAV:  cpu time   10.5767: real time   10.5759
       DOS:  cpu time    0.0010: real time    0.0010
    CHARGE:  cpu time    0.8654: real time    0.8677
    MIXING:  cpu time    0.0110: real time    0.0110
    --------------------------------------------
      LOOP:  cpu time   11.8880: real time   11.8990

 eigenvalue-minimisations  :  2104
 total energy-change (2. order) :-0.8721687E-04  (-0.6737653E-06)
 number of electron     187.0000018 magnetization 
 augmentation part      117.7234810 magnetization 

 Broyden mixing:
  rms(total) = 0.75569E-03    rms(broyden)= 0.75136E-03
  rms(prec ) = 0.80027E-03
  weight for this iteration     100.00

 eigenvalues of (default mixing * dielectric matrix)
  average eigenvalue GAMMA=   1.2628
  5.7235  3.1688  2.4539  1.6903  1.6903  1.0080  1.0080  0.8065  0.8065  0.8189
  0.6919  0.6919  0.2833  0.3991  0.3984  0.3887  0.3456  0.3567

 Free energy of the ion-electron system (eV)
  ---------------------------------------------------
  alpha Z        PSCENC =       228.37091057
  Ewald energy   TEWEN  =    195494.97807217
  -Hartree energ DENC   =   -217276.20660671
  -exchange      EXHF   =         0.00000000
  -V(xc)+E(xc)   XCENC  =       700.65197060
  PAW double counting   =     21902.87339657   -23580.24348554
  entropy T*S    EENTRO =        -0.01668922
  eigenvalues    EBANDS =      -819.18839936
  atomic energy  EATOM  =     23292.47908388
  Solvation  Ediel_sol  =         0.00000000
  ---------------------------------------------------
  free energy    TOTEN  =       -56.30174705 eV

  energy without entropy =      -56.28505783  energy(sigma->0) =      -56.29618397


--------------------------------------------------------------------------------------------------------




--------------------------------------- Iteration      1(  24)  ---------------------------------------


    POTLOK:  cpu time    0.2501: real time    0.2578
    SETDIJ:  cpu time    0.1845: real time    0.1864
     EDDAV:  cpu time   10.7903: real time   10.7894
       DOS:  cpu time    0.0010: real time    0.0010
    CHARGE:  cpu time    0.8652: real time    0.8675
    MIXING:  cpu time    0.0114: real time    0.0114
    --------------------------------------------
      LOOP:  cpu time   12.1026: real time   12.1135

 eigenvalue-minimisations  :  2160
 total energy-change (2. order) :-0.9460306E-04  (-0.1017372E-05)
 number of electron     187.0000018 magnetization 
 augmentation part      117.7255648 magnetization 

 Broyden mixing:
  rms(total) = 0.26090E-03    rms(broyden)= 0.24807E-03
  rms(prec ) = 0.28802E-03
  weight for this iteration     100.00

 eigenvalues of (default mixing * dielectric matrix)
  average eigenvalue GAMMA=   1.3146
  5.7465  3.7165  2.4799  1.9579  1.9579  1.0152  1.0152  1.0833  0.8032  0.8032
  0.8494  0.6925  0.6925  0.2833  0.3456  0.3540  0.4019  0.3902  0.3902

 Free energy of the ion-electron system (eV)
  ---------------------------------------------------
  alpha Z        PSCENC =       228.37091057
  Ewald energy   TEWEN  =    195494.97807217
  -Hartree energ DENC   =   -217276.50954488
  -exchange      EXHF   =         0.00000000
  -V(xc)+E(xc)   XCENC  =       700.64796649
  PAW double counting   =     21903.03530559   -23580.38272660
  entropy T*S    EENTRO =        -0.01669392
  eigenvalues    EBANDS =      -818.90421494
  atomic energy  EATOM  =     23292.47908388
  Solvation  Ediel_sol  =         0.00000000
  ---------------------------------------------------
  free energy    TOTEN  =       -56.30184165 eV

  energy without entropy =      -56.28514773  energy(sigma->0) =      -56.29627701


--------------------------------------------------------------------------------------------------------




--------------------------------------- Iteration      1(  25)  ---------------------------------------


    POTLOK:  cpu time    0.2511: real time    0.2585
    SETDIJ:  cpu time    0.1839: real time    0.1859
     EDDAV:  cpu time   10.7349: real time   10.7340
       DOS:  cpu time    0.0010: real time    0.0010
    CHARGE:  cpu time    0.8671: real time    0.8694
    MIXING:  cpu time    0.0118: real time    0.0118
    --------------------------------------------
      LOOP:  cpu time   12.0498: real time   12.0606

 eigenvalue-minimisations  :  2144
 total energy-change (2. order) :-0.5750087E-04  (-0.3807160E-06)
 number of electron     187.0000018 magnetization 
 augmentation part      117.7261629 magnetization 

 Broyden mixing:
  rms(total) = 0.35317E-03    rms(broyden)= 0.34385E-03
  rms(prec ) = 0.36036E-03
  weight for this iteration     100.00

 eigenvalues of (default mixing * dielectric matrix)
  average eigenvalue GAMMA=   1.3278
  6.2181  3.8643  2.5332  2.0510  2.0510  1.2521  1.0090  1.0090  0.8065  0.8065
  0.8595  0.6931  0.6931  0.5484  0.2833  0.3456  0.3533  0.4027  0.3878  0.3878

 Free energy of the ion-electron system (eV)
  ---------------------------------------------------
  alpha Z        PSCENC =       228.37091057
  Ewald energy   TEWEN  =    195494.97807217
  -Hartree energ DENC   =   -217276.74894161
  -exchange      EXHF   =         0.00000000
  -V(xc)+E(xc)   XCENC  =       700.64757596
  PAW double counting   =     21902.98814655   -23580.32856572
  entropy T*S    EENTRO =        -0.01669317
  eigenvalues    EBANDS =      -818.67148779
  atomic energy  EATOM  =     23292.47908388
  Solvation  Ediel_sol  =         0.00000000
  ---------------------------------------------------
  free energy    TOTEN  =       -56.30189915 eV

  energy without entropy =      -56.28520599  energy(sigma->0) =      -56.29633476


--------------------------------------------------------------------------------------------------------




--------------------------------------- Iteration      1(  26)  ---------------------------------------


    POTLOK:  cpu time    0.2532: real time    0.2606
[...]
     26      -4.9924      2.00000
     27      -4.9840      2.00000
     28      -4.9754      2.00000
     29      -4.8912      2.00000
     30      -4.8653      2.00000
     31      -4.8415      2.00000
     32      -4.7825      2.00000
     33      -4.7680      2.00000
     34      -4.7287      2.00000
     35      -4.6889      2.00000
     36      -4.6764      2.00000
     37      -4.6110      2.00000
     38      -4.5647      2.00000
     39      -4.5570      2.00000
     40      -4.4575      2.00000
     41      -4.4179      2.00000
     42      -4.3736      2.00000
     43      -4.3460      2.00000
     44      -4.3435      2.00000
     45      -4.2091      2.00000
     46      -4.1562      2.00000
     47      -4.1082      2.00000
     48      -4.0998      2.00000
     49      -4.0423      2.00000
     50      -4.0154      2.00000
     51      -4.0043      2.00000
     52      -3.9737      2.00000
     53      -3.9545      2.00000
     54      -3.9484      2.00000
     55      -3.9170      2.00000
     56      -3.8879      2.00000
     57      -3.8736      2.00000
     58      -3.8488      2.00000
     59      -3.8086      2.00000
     60      -3.7899      2.00000
     61      -3.7811      2.00000
     62      -3.7613      2.00000
     63      -3.6892      2.00000
     64      -3.6624      2.00000
     65      -3.6365      2.00000
     66      -3.6282      2.00000
     67      -3.6133      2.00000
     68      -3.5857      2.00000
     69      -3.5625      2.00000
     70      -3.5084      2.00000
     71      -3.4829      2.00000
     72      -3.4811      2.00000
     73      -3.4575      2.00000
     74      -3.4523      2.00000
     75      -3.4293      2.00000
     76      -3.4173      2.00000
     77      -3.4075      2.00000
     78      -3.3483      2.00000
     79      -3.3392      2.00000
     80      -3.3318      2.00000
     81      -3.3146      2.00000
     82      -3.2831      2.00000
     83      -3.2727      2.00000
     84      -3.2669      2.00000
     85      -3.1222      2.00000
     86      -3.0568      2.00000
     87      -3.0557      2.00000
     88      -3.0395      2.00000
     89      -3.0305      2.00000
     90      -2.9891      2.00000
     91      -2.7547      2.00000
     92      -2.6734      2.00000
     93      -2.3350      2.00000
     94      -1.8527      2.00002
     95      -1.4604      0.24976
     96      -1.2891     -0.00732
     97      -0.6748     -0.00000
     98      -0.0693     -0.00000
     99       0.5480     -0.00000
    100       0.8337     -0.00000
    101       1.3470      0.00000
    102       2.0242      0.00000
    103       2.5711      0.00000
    104       2.8579      0.00000
    105       3.2711      0.00000
    106       3.5318      0.00000
    107       3.5441      0.00000
    108       3.6286      0.00000
    109       4.0293      0.00000
    110       4.1933      0.00000
    111       4.3525      0.00000
    112       4.4236      0.00000

 k-point     8 :      -0.3750    0.3750    0.0000
  band No.  band energies     occupation 
      1      -8.6220      2.00000
      2      -7.4521      2.00000
      3      -7.4186      2.00000
      4      -7.2336      2.00000
      5      -6.6064      2.00000
      6      -6.4452      2.00000
      7      -6.3978      2.00000
      8      -6.0488      2.00000
      9      -5.9578      2.00000
     10      -5.9145      2.00000
     11      -5.7216      2.00000
     12      -5.5456      2.00000
     13      -5.5420      2.00000
     14      -5.5067      2.00000
     15      -5.4793      2.00000
     16      -5.4128      2.00000
     17      -5.3931      2.00000
     18      -5.3920      2.00000
     19      -5.3762      2.00000
     20      -5.3090      2.00000
     21      -5.2753      2.00000
     22      -5.2700      2.00000
     23      -5.2249      2.00000
     24      -5.0579      2.00000
     25      -5.0402      2.00000
     26      -4.9924      2.00000
     27      -4.9840      2.00000
     28      -4.9754      2.00000
     29      -4.8912      2.00000
     30      -4.8653      2.00000
     31      -4.8415      2.00000
     32      -4.7825      2.00000
     33      -4.7680      2.00000
     34      -4.7287      2.00000
     35      -4.6889      2.00000
     36      -4.6764      2.00000
     37      -4.6110      2.00000
     38      -4.5647      2.00000
     39      -4.5570      2.00000
     40      -4.4575      2.00000
     41      -4.4179      2.00000
     42      -4.3736      2.00000
     43      -4.3460      2.00000
     44      -4.3435      2.00000
     45      -4.2091      2.00000
     46      -4.1562      2.00000
     47      -4.1082      2.00000
     48      -4.0998      2.00000
     49      -4.0423      2.00000
     50      -4.0153      2.00000
     51      -4.0043      2.00000
     52      -3.9737      2.00000
     53      -3.9545      2.00000
     54      -3.9484      2.00000
     55      -3.9170      2.00000
     56      -3.8879      2.00000
     57      -3.8736      2.00000
     58      -3.8488      2.00000
     59      -3.8086      2.00000
     60      -3.7899      2.00000
     61      -3.7811      2.00000
     62      -3.7613      2.00000
     63      -3.6892      2.00000
     64      -3.6624      2.00000
     65      -3.6365      2.00000
     66      -3.6282      2.00000
     67      -3.6133      2.00000
     68      -3.5857      2.00000
     69      -3.5624      2.00000
     70      -3.5084      2.00000
     71      -3.4829      2.00000
     72      -3.4811      2.00000
     73      -3.4576      2.00000
     74      -3.4523      2.00000
     75      -3.4293      2.00000
     76      -3.4173      2.00000
     77      -3.4075      2.00000
     78      -3.3483      2.00000
     79      -3.3392      2.00000
     80      -3.3317      2.00000
     81      -3.3146      2.00000
     82      -3.2831      2.00000
     83      -3.2727      2.00000
     84      -3.2669      2.00000
     85      -3.1222      2.00000
     86      -3.0568      2.00000
     87      -3.0557      2.00000
     88      -3.0395      2.00000
     89      -3.0305      2.00000
     90      -2.9891      2.00000
     91      -2.7547      2.00000
     92      -2.6734      2.00000
     93      -2.3350      2.00000
     94      -1.8527      2.00002
     95      -1.4604      0.24961
     96      -1.2891     -0.00732
     97      -0.6748     -0.00000
     98      -0.0693     -0.00000
     99       0.5481     -0.00000
    100       0.8337     -0.00000
    101       1.3470      0.00000
    102       2.0242      0.00000
    103       2.5711      0.00000
    104       2.8579      0.00000
    105       3.2711      0.00000
    106       3.5318      0.00000
    107       3.5441      0.00000
    108       3.6286      0.00000
    109       4.0293      0.00000
    110       4.1933      0.00000
    111       4.3525      0.00000
    112       4.4236      0.00000


--------------------------------------------------------------------------------------------------------


 soft charge-density along one line, spin component           1
         0         1         2         3         4         5         6         7         8         9
 total charge-density along one line
 
 pseudopotential strength for first ion, spin component:           1
 -9.193  -0.000  -0.000   0.000  -0.000   0.025   0.000   0.000
 -0.000  -9.189   0.000  -0.000  -0.000   0.000   0.020  -0.000
 -0.000   0.000  -9.175  -0.000   0.000   0.000  -0.000   0.009
  0.000  -0.000  -0.000  -9.189  -0.000  -0.000   0.000   0.000
 -0.000  -0.000   0.000  -0.000  -9.215   0.000   0.000  -0.000
  0.025   0.000   0.000  -0.000   0.000   6.977  -0.000  -0.000
  0.000   0.020  -0.000   0.000   0.000  -0.000   6.981   0.000
  0.000  -0.000   0.009   0.000  -0.000  -0.000   0.000   6.990
 -0.000   0.000   0.000   0.020   0.000   0.000  -0.000  -0.000
  0.000   0.000  -0.000   0.000   0.042  -0.000  -0.000   0.000
 -0.000  -0.000  -0.005   0.000   0.000   0.000   0.000   0.002
 -0.000  -0.000  -0.010   0.000   0.000   0.000   0.000   0.004
  0.000  -0.013  -0.000   0.000   0.000  -0.000   0.011   0.000
  0.000  -0.000  -0.015   0.000  -0.000  -0.000   0.000   0.011
  0.000   0.000  -0.000  -0.013   0.000  -0.000  -0.000   0.000
  0.000  -0.015  -0.000   0.000   0.000  -0.000   0.013   0.000
  0.000  -0.000  -0.017   0.000  -0.000  -0.000   0.000   0.013
  0.000   0.000  -0.000  -0.015   0.000  -0.000  -0.000   0.000
 total augmentation occupancy for first ion, spin component:           1
  1.930  -0.000  -0.000   0.000  -0.000  -0.033   0.000   0.000  -0.000   0.000  -0.000   0.000   0.000   0.000   0.000   0.000
 -0.000   1.926   0.000  -0.000  -0.000   0.000  -0.024  -0.000   0.000  -0.000   0.000  -0.000   0.029  -0.000   0.000  -0.016
 -0.000   0.000   1.940   0.000   0.000   0.000  -0.000  -0.033  -0.000  -0.000   0.000   0.012   0.000   0.042   0.000   0.000
  0.000  -0.000   0.000   1.926  -0.000  -0.000   0.000  -0.000  -0.024   0.000   0.000   0.000   0.000  -0.000   0.029  -0.000
 -0.000  -0.000   0.000  -0.000   1.909   0.000  -0.000  -0.000   0.000  -0.005  -0.000   0.000  -0.000  -0.000   0.000   0.000
 -0.033   0.000   0.000  -0.000   0.000   0.011  -0.000  -0.000   0.000  -0.000   0.000   0.000  -0.000  -0.000  -0.000  -0.000
  0.000  -0.024  -0.000   0.000  -0.000  -0.000   0.009   0.000  -0.000   0.000  -0.000  -0.000   0.022   0.000  -0.000  -0.001
  0.000  -0.000  -0.033  -0.000  -0.000  -0.000   0.000   0.010  -0.000   0.000  -0.030   0.001  -0.000   0.017  -0.000  -0.000
 -0.000   0.000  -0.000  -0.024   0.000   0.000  -0.000  -0.000   0.009  -0.000  -0.000  -0.000  -0.000   0.000   0.022   0.000
  0.000  -0.000  -0.000   0.000  -0.005  -0.000   0.000   0.000  -0.000   0.012   0.000  -0.000   0.000   0.000  -0.000  -0.000
 -0.000   0.000   0.000   0.000  -0.000   0.000  -0.000  -0.030  -0.000   0.000   1.620  -0.124   0.000   0.157  -0.000  -0.000
  0.000  -0.000   0.012   0.000   0.000   0.000  -0.000   0.001  -0.000  -0.000  -0.124   0.015  -0.000  -0.024  -0.000   0.000
  0.000   0.029   0.000   0.000  -0.000  -0.000   0.022  -0.000  -0.000   0.000   0.000  -0.000   0.176  -0.000  -0.000  -0.011
  0.000  -0.000   0.042  -0.000  -0.000  -0.000   0.000   0.017   0.000   0.000   0.157  -0.024  -0.000   0.107   0.000  -0.000
  0.000   0.000   0.000   0.029   0.000  -0.000  -0.000  -0.000   0.022  -0.000  -0.000  -0.000  -0.000   0.000   0.176   0.000
  0.000  -0.016   0.000  -0.000   0.000  -0.000  -0.001  -0.000   0.000  -0.000  -0.000   0.000  -0.011  -0.000   0.000   0.001
  0.000  -0.000  -0.019   0.000   0.000   0.000  -0.000  -0.001  -0.000  -0.000  -0.022   0.002  -0.000  -0.008  -0.000   0.000
 -0.000  -0.000  -0.000  -0.016   0.000   0.000   0.000   0.000  -0.001  -0.000   0.000  -0.000   0.000   0.000  -0.011  -0.000


------------------------ aborting loop because EDIFF is reached ----------------------------------------


    CHARGE:  cpu time    0.8870: real time    0.8892
    FORLOC:  cpu time    0.0452: real time    0.0452
    FORNL :  cpu time    3.9873: real time    3.9987
    STRESS:  cpu time   12.1660: real time   12.2031
    FORCOR:  cpu time    0.2930: real time    0.2985
    FORHAR:  cpu time    0.0937: real time    0.0951
    MIXING:  cpu time    0.0071: real time    0.0071
    OFIELD:  cpu time    0.0001: real time    0.0001

  FORCE on cell =-STRESS in cart. coord.  units (eV):
  Direction    XX          YY          ZZ          XY          YZ          ZX
  --------------------------------------------------------------------------------------
  Alpha Z   228.37091   228.37091   228.37091
  Ewald  208013.70369208013.68858************     0.00400    -0.54778     0.00837
  Hartree213818.67620213818.66599************     0.00147    -0.28907     0.00410
  E(xc)   -1085.24418 -1085.24420 -1086.57627     0.00000    -0.00032     0.00001
  Local  ************************427612.86716    -0.00506     0.81985    -0.01228
  n-local  -363.77376  -363.77400  -367.82403     0.00001    -0.00907     0.00014
  augment  1604.22209  1604.22221  1606.62531    -0.00016     0.00798    -0.00011
  Kinetic  1569.79461  1569.79482  1573.50871    -0.00019     0.00400    -0.00008
  Fock        0.00000     0.00000     0.00000     0.00000     0.00000     0.00000
  -------------------------------------------------------------------------------------
  Total      -5.04090    -5.04117    -2.79530     0.00009    -0.01440     0.00015
  in kB      -8.64378    -8.64424    -4.79318     0.00015    -0.02470     0.00026
  external pressure =       -7.36 kB  Pullay stress =        0.00 kB


 VOLUME and BASIS-vectors are now :
 -----------------------------------------------------------------------------
  energy-cutoff  :      380.00
  volume of cell :      934.36
      direct lattice vectors                 reciprocal lattice vectors
     5.147737367  0.000000000  0.000000000     0.194260105  0.000000000  0.000000000
     0.000000000  5.147737367  0.000000000     0.000000000  0.194260105  0.000000000
     0.000000000  0.000000000 35.260000000     0.000000000  0.000000000  0.028360749

  length of vectors
     5.147737367  5.147737367 35.260000000     0.194260105  0.194260105  0.028360749


 FORCES acting on ions
    electron-ion (+dipol)            ewald-force                    non-local-force                 convergence-correction
 -----------------------------------------------------------------------------------------------
   0.133E-02 0.991E-03 0.412E+04   -.137E-02 -.896E-03 -.412E+04   0.283E-04 -.927E-04 -.359E+01   -.801E-05 -.242E-04 0.291E-02
   -.138E-02 0.240E-03 0.412E+04   0.142E-02 -.669E-03 -.412E+04   -.402E-04 0.402E-03 -.382E+01   0.758E-05 -.112E-04 0.301E-02
   0.138E-02 0.297E-03 0.412E+04   -.141E-02 -.440E-03 -.412E+04   0.207E-04 0.160E-03 -.382E+01   -.756E-05 0.213E-04 0.301E-02
   -.144E-02 0.965E-03 0.412E+04   0.147E-02 -.578E-03 -.412E+04   -.247E-04 -.346E-03 -.358E+01   0.707E-05 0.862E-05 0.304E-02
   0.409E+01 0.407E+01 0.160E+04   -.422E+01 -.420E+01 -.160E+04   0.900E-01 0.912E-01 -.451E+00   -.617E-04 -.651E-04 0.762E-02
   -.408E+01 0.407E+01 0.160E+04   0.421E+01 -.420E+01 -.160E+04   -.902E-01 0.911E-01 -.451E+00   0.580E-04 -.582E-04 0.761E-02
   0.409E+01 -.415E+01 0.160E+04   -.422E+01 0.428E+01 -.160E+04   0.899E-01 -.886E-01 -.450E+00   -.550E-04 0.343E-04 0.762E-02
   -.409E+01 -.415E+01 0.160E+04   0.422E+01 0.428E+01 -.160E+04   -.900E-01 -.886E-01 -.450E+00   0.513E-04 0.274E-04 0.761E-02
   0.351E-01 0.685E-01 -.959E+03   -.352E-01 -.686E-01 0.957E+03   -.372E-03 -.265E-02 0.123E+01   0.155E-03 0.172E-02 0.746E-02
   -.383E-01 0.170E-01 -.987E+03   0.383E-01 -.166E-01 0.988E+03   0.200E-03 -.179E-02 -.670E+00   0.143E-03 0.109E-02 0.773E-02
   0.404E-01 -.455E-01 -.987E+03   -.404E-01 0.455E-01 0.988E+03   -.522E-03 -.162E-02 -.671E+00   0.174E-03 0.160E-02 0.766E-02
   -.443E-01 -.715E-02 -.102E+04   0.442E-01 0.726E-02 0.102E+04   0.369E-03 -.260E-03 -.625E+00   0.847E-04 0.149E-03 0.766E-02
   0.639E+02 0.640E+02 -.353E+04   -.641E+02 -.642E+02 0.352E+04   0.218E+00 0.215E+00 0.255E+01   0.441E-03 0.146E-02 0.306E-02
   -.639E+02 0.640E+02 -.353E+04   0.641E+02 -.642E+02 0.352E+04   -.218E+00 0.214E+00 0.255E+01   -.379E-03 0.164E-02 0.349E-02
   0.640E+02 -.639E+02 -.353E+04   -.642E+02 0.641E+02 0.352E+04   0.215E+00 -.218E+00 0.254E+01   0.729E-03 0.216E-03 0.424E-02
   -.640E+02 -.639E+02 -.353E+04   0.642E+02 0.641E+02 0.352E+04   -.215E+00 -.218E+00 0.254E+01   -.367E-03 0.147E-03 0.464E-02
   0.261E-02 0.415E-02 -.484E+04   -.262E-02 -.507E-02 0.483E+04   0.349E-03 -.378E-03 0.759E+01   -.222E-03 0.336E-04 0.274E-03
 -----------------------------------------------------------------------------------------------
   -.246E-04 -.415E-03 -.526E+00   -.104E-12 -.304E-13 -.273E-11   -.592E-03 -.863E-02 0.433E+00   0.751E-03 0.800E-02 0.886E-01
 
 
 POSITION                                       TOTAL-FORCE (eV/Angst)
 -----------------------------------------------------------------------------------
      1.28693      1.28693     35.15600        -0.000024      0.000039      0.252658
      3.86080      1.28693     35.15600         0.000002      0.000023      0.259667
      1.28693      3.86080     35.15600        -0.000022      0.000100      0.259673
      3.86080      3.86080     35.15600         0.000004      0.000112      0.319778
      0.00000      0.00000      1.71600        -0.040581     -0.039614     -0.273481
      2.57387      0.00000      1.71600         0.040477     -0.039597     -0.273617
      0.00000      2.57387      1.71600        -0.040495      0.041650     -0.273416
      2.57387      2.57387      1.71600         0.040395      0.041641     -0.273556
      1.28694      1.28749      3.50874        -0.000276     -0.000888     -0.000071
      3.86075      1.28745      3.52308         0.000295     -0.000268      0.000803
      1.28694      3.86139      3.52318        -0.000336      0.000034      0.000163
      3.86074      3.86137      3.54722         0.000368      0.000063     -0.000101
     -0.00907     -0.00798      5.30292         0.001116     -0.000249      0.000484
      2.58294     -0.00808      5.30292        -0.001231     -0.000081      0.000706
     -0.00901      2.58387      5.30268        -0.000341     -0.000995      0.000885
      2.58274      2.58378      5.30264         0.000533     -0.000774      0.000922
      1.28698      1.28846      7.17661         0.000117     -0.001197     -0.001497
 -----------------------------------------------------------------------------------
    total drift:                                0.000134     -0.001048     -0.004685


--------------------------------------------------------------------------------------------------------



  FREE ENERGIE OF THE ION-ELECTRON SYSTEM (eV)
  ---------------------------------------------------
  free  energy   TOTEN  =       -57.33409137 eV

  energy  without entropy=      -57.31762721  energy(sigma->0) =      -57.32860332
 
 d Force = 0.4969800E-08[-0.125E-06, 0.135E-06]  d Energy = 0.5413312E-07-0.492E-07
 d Force =-0.6242083E+00[-0.624E+00,-0.624E+00]  d Ewald  =-0.6242083E+00-0.291E-09


--------------------------------------------------------------------------------------------------------


    POTLOK:  cpu time    0.4338: real time    0.4429


--------------------------------------------------------------------------------------------------------


 stress matrix after NEB project (eV)
     -5.04090      0.00009      0.00015
      0.00009     -5.04117     -0.01440
      0.00015     -0.01440     -2.79530
  FORCES: max atom, RMS     0.001920    0.000869
  FORCE total and by dimension    0.003583    0.001497
  Stress total and by dimension    7.657556    5.041168


--------------------------------------------------------------------------------------------------------


  
 reached required accuracy - stopping structural energy minimisation
     LOOP+:  cpu time   51.1450: real time   51.2468
    4ORBIT:  cpu time    0.0001: real time    0.0027

 total amount of memory used by VASP MPI-rank0   234585. kBytes
=======================================================================

   base      :      30000. kBytes
   nonlr-proj:      16579. kBytes
   fftplans  :      85862. kBytes
   grid      :      44250. kBytes
   one-center:        264. kBytes
   wavefun   :      57630. kBytes
 
  
  
 General timing and accounting informations for this job:
 ========================================================
  
                  Total CPU time used (sec):     9111.627
                            User time (sec):     9068.151
                          System time (sec):       43.475
                         Elapsed time (sec):     9123.627
  
                   Maximum memory used (kb):      417384.
                   Average memory used (kb):           0.
  
                          Minor page faults:      2245899
                          Major page faults:          275
                 Voluntary context switches:       290988
