 vasp.6.1.0 28Jan20 (build May 12 2023 01:18:31) complex                        
  
 executed on             LinuxIFC date 2023.06.17  14:39:37
 running on    4 total cores
 distrk:  each k-point on    4 cores,    1 groups
 distr:  one band on NCORE=   1 cores,    4 groups


--------------------------------------------------------------------------------------------------------


 INCAR:
 POTCAR:    PAW_PBE Cu 22Jun2005                  
 POTCAR:    PAW_PBE Ag 02Apr2005                  
 POTCAR:    PAW_PBE Cu 22Jun2005                  
   VRHFIN =Cu: d10 p1                                                                               
   LEXCH  = PE                                                                                      
   EATOM  =  1390.9808 eV,  102.2342 Ry                                                             
                                                                                                    
   TITEL  = PAW_PBE Cu 22Jun2005                                                                    
   LULTRA =        F    use ultrasoft PP ?                                                          
   IUNSCR =        1    unscreen: 0-lin 1-nonlin 2-no                                               
   RPACOR =    2.000    partial core radius                                                         
   POMASS =   63.546; ZVAL   =   11.000    mass and valenz                                          
   RCORE  =    2.300    outmost cutoff radius                                                       
   RWIGS  =    2.200; RWIGS  =    1.164    wigner-seitz radius (au A)                               
   ENMAX  =  295.446; ENMIN  =  221.585 eV                                                          
   ICORE  =        3    local potential                                                             
   LCOR   =        T    correct aug charges                                                         
   LPAW   =        T    paw PP                                                                      
   EAUG   =  586.980                                                                                
   DEXC   =    0.000                                                                                
   RMAX   =    2.344    core radius for proj-oper                                                   
   RAUG   =    1.300    factor for augmentation sphere                                              
   RDEP   =    2.302    radius for radial grids                                                     
   RDEPT  =    1.771    core radius for aug-charge                                                  
                                                                                                    
   Atomic configuration                                                                             
    9 entries                                                                                       
     n  l   j            E        occ.                                                              
     1  0  0.50     -8850.2468   2.0000                                                             
     2  0  0.50     -1062.3498   2.0000                                                             
     2  1  1.50      -916.8226   6.0000                                                             
     3  0  0.50      -114.6929   2.0000                                                             
     3  1  1.50       -72.1325   6.0000                                                             
     3  2  2.50        -5.0394  10.0000                                                             
     4  0  0.50        -4.6097   1.0000                                                             
     4  1  0.50        -4.0817   0.0000                                                             
     4  3  2.50        -1.3606   0.0000                                                             
   Description                                                                                      
     l       E           TYP  RCUT    TYP  RCUT                                                     
     2     -5.0393973     23  2.200                                                                 
     2     10.8846608     23  2.200                                                                 
     0     -4.6097109     23  2.200                                                                 
     0      8.2520465     23  2.200                                                                 
     1     -2.7211652     23  2.200                                                                 
     1     21.7055443     23  2.200                                                                 
     3      2.7211652     23  2.300                                                                 
  local pseudopotential read in
  partial core-charges read in
  partial kinetic energy density read in
  atomic valenz-charges read in
  non local Contribution for L=           2  read in
    real space projection operators read in
  non local Contribution for L=           2  read in
    real space projection operators read in
  non local Contribution for L=           0  read in
    real space projection operators read in
  non local Contribution for L=           0  read in
    real space projection operators read in
  non local Contribution for L=           1  read in
    real space projection operators read in
  non local Contribution for L=           1  read in
    real space projection operators read in
    PAW grid and wavefunctions read in
 
   number of l-projection  operators is LMAX  =           6
   number of lm-projection operators is LMMAX =          18
 
 POTCAR:    PAW_PBE Ag 02Apr2005                  
   VRHFIN =Ag : s1 d10                                                                              
   LEXCH  = PE                                                                                      
   EATOM  =  1037.2675 eV,   76.2370 Ry                                                             
                                                                                                    
   TITEL  = PAW_PBE Ag 02Apr2005                                                                    
   LULTRA =        F    use ultrasoft PP ?                                                          
   IUNSCR =        1    unscreen: 0-lin 1-nonlin 2-no                                               
   RPACOR =    2.000    partial core radius                                                         
   POMASS =  107.868; ZVAL   =   11.000    mass and valenz                                          
   RCORE  =    2.500    outmost cutoff radius                                                       
   RWIGS  =    2.840; RWIGS  =    1.503    wigner-seitz radius (au A)                               
   ENMAX  =  249.844; ENMIN  =  187.383 eV                                                          
   ICORE  =        3    local potential                                                             
   LCOR   =        T    correct aug charges                                                         
   LPAW   =        T    paw PP                                                                      
   EAUG   =  412.496                                                                                
   DEXC   =    0.000                                                                                
   RMAX   =    2.560    core radius for proj-oper                                                   
   RAUG   =    1.300    factor for augmentation sphere                                              
   RDEP   =    2.576    radius for radial grids                                                     
   RDEPT  =    2.072    core radius for aug-charge                                                  
                                                                                                    
   Atomic configuration                                                                             
   12 entries                                                                                       
     n  l   j            E        occ.                                                              
     1  0  0.50    -25324.9161   2.0000                                                             
     2  0  0.50     -3728.5341   2.0000                                                             
     2  1  1.50     -3344.0404   6.0000                                                             
     3  0  0.50      -683.5581   2.0000                                                             
     3  1  1.50      -557.3225   6.0000                                                             
     3  2  2.50      -358.3853  10.0000                                                             
     4  0  0.50       -95.0341   2.0000                                                             
     4  1  1.50       -58.5511   6.0000                                                             
     4  2  2.50        -7.4440  10.0000                                                             
     5  0  0.50        -4.4045   1.0000                                                             
     5  1  0.50        -1.3606   0.0000                                                             
     4  3  2.50        -1.3606   0.0000                                                             
   Description                                                                                      
     l       E           TYP  RCUT    TYP  RCUT                                                     
     2     -7.4439781     23  2.400                                                                 
     2     -8.8045607     23  2.400                                                                 
     0     -4.4044681     23  2.400                                                                 
     0      1.9520038     23  2.400                                                                 
     1     -1.3605826     23  2.500                                                                 
     1     27.2116520     23  2.500                                                                 
     3     -4.0817478     23  2.400                                                                 
  local pseudopotential read in
  partial core-charges read in
  partial kinetic energy density read in
  atomic valenz-charges read in
  non local Contribution for L=           2  read in
    real space projection operators read in
  non local Contribution for L=           2  read in
    real space projection operators read in
  non local Contribution for L=           0  read in
    real space projection operators read in
  non local Contribution for L=           0  read in
    real space projection operators read in
  non local Contribution for L=           1  read in
    real space projection operators read in
  non local Contribution for L=           1  read in
    real space projection operators read in
    PAW grid and wavefunctions read in
 
   number of l-projection  operators is LMAX  =           6
   number of lm-projection operators is LMMAX =          18
 
 -----------------------------------------------------------------------------
|                                                                             |
|               ----> ADVICE to this user running VASP <----                  |
|                                                                             |
|     You have a (more or less) 'large supercell' and for larger cells it     |
|     might be more efficient to use real-space projection operators.         |
|     Therefore, try LREAL= Auto in the INCAR file.                           |
|     Mind: For very accurate calculation, you might also keep the            |
|     reciprocal projection scheme (i.e. LREAL=.FALSE.).                      |
|                                                                             |
 -----------------------------------------------------------------------------

  PAW_PBE Cu 22Jun2005                  :
 energy of atom  1       EATOM=-1390.9808
 kinetic energy error for atom=    0.0292 (will be added to EATOM!!)
  PAW_PBE Ag 02Apr2005                  :
 energy of atom  2       EATOM=-1037.2675
 kinetic energy error for atom=    0.0139 (will be added to EATOM!!)
 
 
 POSCAR: Cu Ag
  positions in direct lattice
  velocities in cartesian coordinates
 exchange correlation table for  LEXCH =        8
   RHO(1)=    0.500       N(1)  =     2000
   RHO(2)=  100.500       N(2)  =     4000

 VTST: version 4.0, (05/15/20)

 CHAIN: initializing optimizer
 
 OPT: Using VASP Dynamics algorithm
 CHAIN: Read ICHAIN            0
 
 POSCAR: Cu Ag
  positions in direct lattice
  velocities in cartesian coordinates
 


--------------------------------------------------------------------------------------------------------


 ion  position               nearest neighbor table
   1  0.250  0.250  0.997-   5 2.57   6 2.57   7 2.57   8 2.57   2 2.57   3 2.57   3 2.57   2 2.57

   2  0.750  0.250  0.997-   5 2.57   6 2.57   7 2.57   8 2.57   1 2.57   4 2.57   4 2.57   1 2.57

   3  0.250  0.750  0.997-   5 2.57   6 2.57   7 2.57   8 2.57   1 2.57   4 2.57   1 2.57   4 2.57

   4  0.750  0.750  0.997-   5 2.57   6 2.57   7 2.57   8 2.57   2 2.57   3 2.57   2 2.57   3 2.57

   5  0.000  0.000  0.049-   9 2.56  10 2.56  11 2.56   4 2.57   1 2.57   2 2.57   3 2.57   7 2.57
                             6 2.57   7 2.57   6 2.57  12 2.58
   6  0.500  0.000  0.049-   9 2.55  11 2.56  10 2.57   4 2.57   1 2.57   2 2.57   3 2.57   8 2.57
                             5 2.57   8 2.57   5 2.57  12 2.58
   7  0.000  0.500  0.049-   9 2.55  10 2.56  11 2.57   4 2.57   1 2.57   2 2.57   3 2.57   8 2.57
                             5 2.57   5 2.57   8 2.57  12 2.58
   8  0.500  0.500  0.049-   9 2.55  10 2.56  11 2.56   4 2.57   1 2.57   2 2.57   3 2.57   7 2.57
                             6 2.57   6 2.57   7 2.57  12 2.58
   9  0.250  0.250  0.100-   8 2.55   7 2.55   6 2.55   5 2.56  13 2.56  14 2.56  15 2.56  16 2.57
                            10 2.57  11 2.57  10 2.57  11 2.57
  10  0.750  0.250  0.100-  14 2.54  13 2.55  16 2.55  15 2.55   7 2.56   8 2.56   5 2.56   6 2.57
                             9 2.57  12 2.57   9 2.57  12 2.57
  11  0.250  0.750  0.100-  15 2.54  13 2.55  16 2.55  14 2.55   6 2.56   8 2.56   5 2.56   7 2.57
                             9 2.57  12 2.57   9 2.57  12 2.57
  12  0.750  0.750  0.101-  16 2.52  15 2.52  14 2.52  13 2.52  10 2.57  11 2.57  10 2.57  11 2.57
                             5 2.58   6 2.58   7 2.58   8 2.58
  13  0.998  0.998  0.150-  12 2.52  11 2.55  10 2.55  14 2.56  15 2.56   9 2.56  14 2.59  15 2.59
                            17 2.62
  14  0.502  0.999  0.150-  12 2.52  10 2.54  11 2.55  13 2.56  16 2.56   9 2.56  16 2.59  13 2.59
                            17 2.62
  15  0.999  0.502  0.150-  12 2.52  11 2.54  10 2.55  13 2.56  16 2.56   9 2.56  16 2.59  13 2.59
                            17 2.62
  16  0.502  0.502  0.150-  12 2.52  11 2.55  10 2.55  14 2.56  15 2.56   9 2.57  14 2.59  15 2.59
                            17 2.62
  17  0.250  0.250  0.204-  13 2.62  14 2.62  15 2.62  16 2.62
 
  LATTYP: Found a simple tetragonal cell.
 ALAT       =     5.1477373670
 C/A-ratio  =     6.8496112925
  
  Lattice vectors:
  
 A1 = (   5.1477373670,   0.0000000000,   0.0000000000)
 A2 = (   0.0000000000,   5.1477373670,   0.0000000000)
 A3 = (   0.0000000000,   0.0000000000,  35.2600000000)


Analysis of symmetry for initial positions (statically):
=====================================================================
 Subroutine PRICEL returns:
 Original cell was already a primitive cell.
 

 Routine SETGRP: Setting up the symmetry group for a 
 simple tetragonal supercell.


 Subroutine GETGRP returns: Found  2 space group operations
 (whereof  2 operations were pure point group operations)
 out of a pool of 16 trial point group operations.


The static configuration has the point symmetry C_1h.


Analysis of symmetry for dynamics (positions and initial velocities):
=====================================================================
 Subroutine PRICEL returns:
 Original cell was already a primitive cell.
 

 Routine SETGRP: Setting up the symmetry group for a 
 simple tetragonal supercell.


 Subroutine GETGRP returns: Found  2 space group operations
 (whereof  2 operations were pure point group operations)
 out of a pool of 16 trial point group operations.


The dynamic configuration has the point symmetry C_1h.


Analysis of constrained symmetry for selective dynamics:
=====================================================================
 Subroutine PRICEL returns:
 Original cell was already a primitive cell.
 

 Routine SETGRP: Setting up the symmetry group for a 
 simple tetragonal supercell.


 Subroutine GETGRP returns: Found  2 space group operations
 (whereof  2 operations were pure point group operations)
 out of a pool of 16 trial point group operations.


The constrained configuration has the point symmetry C_1h.


 Subroutine INISYM returns: Found  2 space group operations
 (whereof  2 operations are pure point group operations),
 and found     1 'primitive' translations


----------------------------------------------------------------------------------------

                                     Primitive cell                                     

  volume of cell :     934.3618

  direct lattice vectors                    reciprocal lattice vectors
     5.147737367  0.000000000  0.000000000     0.194260105  0.000000000  0.000000000
     0.000000000  5.147737367  0.000000000     0.000000000  0.194260105  0.000000000
     0.000000000  0.000000000 35.260000000     0.000000000  0.000000000  0.028360749

  length of vectors
     5.147737367  5.147737367 35.260000000     0.194260105  0.194260105  0.028360749

  position of ions in fractional coordinates (direct lattice)
     0.250000000  0.250000000  0.997050482
     0.750000000  0.250000000  0.997050482
     0.250000000  0.750000000  0.997050482
     0.750000000  0.750000000  0.997050482
     0.000000000  0.000000000  0.048667045
     0.500000000  0.000000000  0.048667045
     0.000000000  0.500000000  0.048667045
     0.500000000  0.500000000  0.048667045
     0.250132829  0.250132829  0.099516002
     0.750146131  0.250151200  0.099924033
     0.250151200  0.750146131  0.099924033
     0.750158643  0.750158643  0.100604864
     0.998492445  0.998492445  0.150393283
     0.502009999  0.998513242  0.150394975
     0.998513242  0.502009999  0.150394975
     0.501988007  0.501988007  0.150396091
     0.250198126  0.250198126  0.203527349

  ion indices of the primitive-cell ions
   primitive index   ion index
                 1           1
                 2           2
                 3           3
                 4           4
                 5           5
                 6           6
                 7           7
                 8           8
                 9           9
                10          10
                11          11
                12          12
                13          13
                14          14
                15          15
                16          16
                17          17

----------------------------------------------------------------------------------------

 
 
 KPOINTS: K-Points                                

Automatic generation of k-mesh.
Space group operators:
 irot       det(A)        alpha          n_x          n_y          n_z        tau_x        tau_y        tau_z
    1     1.000000     0.000000     1.000000     0.000000     0.000000     0.000000     0.000000     0.000000
    2    -1.000000   180.000000     0.707107    -0.707107     0.000000     0.000000     0.000000     0.000000
 
 Subroutine IBZKPT returns following result:
 ===========================================
 
 Found      6 irreducible k-points:
 
 Following reciprocal coordinates:
            Coordinates               Weight
  0.125000  0.125000  0.000000      2.000000
 -0.125000  0.125000  0.000000      2.000000
  0.375000  0.125000  0.000000      4.000000
 -0.125000  0.375000  0.000000      4.000000
  0.375000  0.375000  0.000000      2.000000
 -0.375000  0.375000  0.000000      2.000000
 
 Following cartesian coordinates:
            Coordinates               Weight
  0.024283  0.024283  0.000000      2.000000
 -0.024283  0.024283  0.000000      2.000000
  0.072848  0.024283  0.000000      4.000000
 -0.024283  0.072848  0.000000      4.000000
  0.072848  0.072848  0.000000      2.000000
 -0.072848  0.072848  0.000000      2.000000
 
 
 Subroutine IBZKPT_HF returns following result:
 ==============================================
 
 Found     16 k-points in 1st BZ
 the following     16 k-points will be used (e.g. in the exchange kernel)
 Following reciprocal coordinates:   # in IRBZ
  0.125000  0.125000  0.000000    0.06250000   1 t-inv F
 -0.125000  0.125000  0.000000    0.06250000   2 t-inv F
  0.375000  0.125000  0.000000    0.06250000   3 t-inv F
 -0.125000  0.375000  0.000000    0.06250000   4 t-inv F
  0.375000  0.375000  0.000000    0.06250000   5 t-inv F
 -0.375000  0.375000  0.000000    0.06250000   6 t-inv F
  0.125000 -0.125000  0.000000    0.06250000   2 t-inv F
  0.125000  0.375000  0.000000    0.06250000   3 t-inv F
  0.375000 -0.125000  0.000000    0.06250000   4 t-inv F
  0.375000 -0.375000  0.000000    0.06250000   6 t-inv F
 -0.125000 -0.125000  0.000000    0.06250000   1 t-inv T
 -0.375000 -0.125000  0.000000    0.06250000   3 t-inv T
 -0.125000 -0.375000  0.000000    0.06250000   3 t-inv T
  0.125000 -0.375000  0.000000    0.06250000   4 t-inv T
 -0.375000  0.125000  0.000000    0.06250000   4 t-inv T
 -0.375000 -0.375000  0.000000    0.06250000   5 t-inv T


--------------------------------------------------------------------------------------------------------




 Dimension of arrays:
   k-points           NKPTS =      6   k-points in BZ     NKDIM =      6   number of bands    NBANDS=    112
   number of dos      NEDOS =    301   number of ions     NIONS =     17
   non local maximal  LDIM  =      6   non local SUM 2l+1 LMDIM =     18
   total plane-waves  NPLWV = 290304
   max r-space proj   IRMAX =      1   max aug-charges    IRDMAX= 122398
   dimension x,y,z NGX =    36 NGY =   36 NGZ =  224
   dimension x,y,z NGXF=    72 NGYF=   72 NGZF=  448
   support grid    NGXF=   144 NGYF=  144 NGZF=  896
   ions per type =              16   1
   NGX,Y,Z   is equivalent  to a cutoff of  11.63, 11.63, 10.56 a.u.
   NGXF,Y,Z  is equivalent  to a cutoff of  23.25, 23.25, 21.12 a.u.

 SYSTEM =  unknown system                          
 POSCAR =  Cu Ag                                   

 Startparameter for this run:
   NWRITE =      2    write-flag & timer
   PREC   = accura    normal or accurate (medium, high low for compatibility)
   ISTART =      0    job   : 0-new  1-cont  2-samecut
   ICHARG =      2    charge: 1-file 2-atom 10-const
   ISPIN  =      1    spin polarized calculation?
   LNONCOLLINEAR =      F non collinear calculations
   LSORBIT =      F    spin-orbit coupling
   INIWAV =      1    electr: 0-lowe 1-rand  2-diag
   LASPH  =      F    aspherical Exc in radial PAW
   METAGGA=      F    non-selfconsistent MetaGGA calc.

 Electronic Relaxation 1
   ENCUT  =  380.0 eV  27.93 Ry    5.28 a.u.   8.18  8.18 56.04*2*pi/ulx,y,z
   ENINI  =  380.0     initial cutoff
   ENAUG  =  587.0 eV  augmentation charge cutoff
   NELM   =    400;   NELMIN=  2; NELMDL= -5     # of ELM steps 
   EDIFF  = 0.1E-06   stopping-criterion for ELM
   LREAL  =      F    real-space projection
   NLSPLINE    = F    spline interpolate recip. space projectors
   LCOMPAT=      F    compatible to vasp.4.4
   GGA_COMPAT  = T    GGA compatible to vasp.4.4-vasp.4.6
   LMAXPAW     = -100 max onsite density
   LMAXMIX     =    2 max onsite mixed and CHGCAR
   VOSKOWN=      0    Vosko Wilk Nusair interpolation
   ROPT   =    0.00000   0.00000
 Ionic relaxation
   EDIFFG = 0.1E-05   stopping-criterion for IOM
   NSW    =    241    number of steps for IOM
   NBLOCK =      1;   KBLOCK =    241    inner block; outer block 
   IBRION =      5    ionic relax: 0-MD 1-quasi-New 2-CG
   NFREE  =      2    steps in history (QN), initial steepest desc. (CG)
   ISIF   =      2    stress and relaxation
   IWAVPR =     11    prediction:  0-non 1-charg 2-wave 3-comb
   ISYM   =      2    0-nonsym 1-usesym 2-fastsym
   LCORR  =      T    Harris-Foulkes like correction to forces

   POTIM  = 0.0400    time-step for ionic-motion
   TEIN   =    0.0    initial temperature
   TEBEG  =    0.0;   TEEND  =   0.0 temperature during run
   SMASS  =  -3.00    Nose mass-parameter (am)
   estimated Nose-frequenzy (Omega)   =  0.10E-29 period in steps = 0.16E+48 mass=  -0.606E-27a.u.
   SCALEE = 1.0000    scale energy and forces
   NPACO  =    256;   APACO  = 16.0  distance and # of slots for P.C.
   PSTRESS=    0.0 pullay stress

  Mass of Ions in am
   POMASS =  63.55107.87
  Ionic Valenz
   ZVAL   =  11.00 11.00
  Atomic Wigner-Seitz radii
   RWIGS  =  -1.00 -1.00
  virtual crystal weights 
   VCA    =   1.00  1.00
   NELECT =     187.0000    total number of electrons
   NUPDOWN=      -1.0000    fix difference up-down

 DOS related values:
   EMIN   =  10.00;   EMAX   =-10.00  energy-range for DOS
   EFERMI =   0.00
   ISMEAR =     0;   SIGMA  =   0.10  broadening in eV -4-tet -1-fermi 0-gaus

 Electronic relaxation 2 (details)
   IALGO  =     38    algorithm
   LDIAG  =      T    sub-space diagonalisation (order eigenvalues)
   LSUBROT=      F    optimize rotation matrix (better conditioning)
   TURBO    =      0    0=normal 1=particle mesh
   IRESTART =      0    0=no restart 2=restart with 2 vectors
   NREBOOT  =      0    no. of reboots
   NMIN     =      0    reboot dimension
   EREF     =   0.00    reference energy to select bands
   IMIX   =      4    mixing-type and parameters
     AMIX     =   0.40;   BMIX     =  1.00
     AMIX_MAG =   1.60;   BMIX_MAG =  1.00
     AMIN     =   0.10
     WC   =   100.;   INIMIX=   1;  MIXPRE=   1;  MAXMIX= -45

 Intra band minimization:
   WEIMIN = 0.0010     energy-eigenvalue tresh-hold
   EBREAK =  0.22E-09  absolut break condition
   DEPER  =   0.30     relativ break condition  

   TIME   =   0.40     timestep for ELM

  volume/ion in A,a.u.               =      54.96       370.90
  Fermi-wavevector in a.u.,A,eV,Ry     =   0.957599  1.809600 12.476485  0.916996
  Thomas-Fermi vector in A             =   2.086631
 
 Write flags
   LWAVE        =      T    write WAVECAR
   LDOWNSAMPLE  =      F    k-point downsampling of WAVECAR
   LCHARG       =      T    write CHGCAR
   LVTOT        =      F    write LOCPOT, total local potential
   LVHAR        =      F    write LOCPOT, Hartree potential only
   LELF         =      F    write electronic localiz. function (ELF)
   LORBIT       =      0    0 simple, 1 ext, 2 COOP (PROOUT), +10 PAW based schemes


 Dipole corrections
   LMONO  =      F    monopole corrections only (constant potential shift)
   LDIPOL =      F    correct potential (dipole corrections)
   IDIPOL =      0    1-x, 2-y, 3-z, 4-all directions 
   EPSILON=  1.0000000 bulk dielectric constant

 Exchange correlation treatment:
   GGA     =    --    GGA type
   LEXCH   =     8    internal setting for exchange type
   VOSKOWN=      0    Vosko Wilk Nusair interpolation
   LHFCALC =     F    Hartree Fock is set to
   LHFONE  =     F    Hartree Fock one center treatment
   AEXX    =    0.0000 exact exchange contribution

 Linear response parameters
   LEPSILON=     F    determine dielectric tensor
   LRPA    =     F    only Hartree local field effects (RPA)
   LNABLA  =     F    use nabla operator in PAW spheres
   LVEL    =     F    velocity operator in full k-point grid
   LINTERFAST=   F  fast interpolation
   KINTER  =     0    interpolate to denser k-point grid
   CSHIFT  =0.1000    complex shift for real part using Kramers Kronig
   OMEGAMAX=  -1.0    maximum frequency
   DEG_THRESHOLD= 0.2000000E-02 threshold for treating states as degnerate
   RTIME   =   -0.100 relaxation time in fs
  (WPLASMAI=    0.000 imaginary part of plasma frequency in eV, 0.658/RTIME)
   DFIELD  = 0.0000000 0.0000000 0.0000000 field for delta impulse in time
 
 Orbital magnetization related:
   ORBITALMAG=     F  switch on orbital magnetization
   LCHIMAG   =     F  perturbation theory with respect to B field
   DQ        =  0.001000  dq finite difference perturbation B field
   LLRAUG    =     F  two centre corrections for induced B field



--------------------------------------------------------------------------------------------------------


 finite differences
   using selective dynamics as specified on POSCAR
 charge density and potential will be updated during run
 non-spin polarized calculation
 Variant of blocked Davidson
 Davidson routine will perform the subspace rotation
 perform sub-space diagonalisation
    after iterative eigenvector-optimisation
 modified Broyden-mixing scheme, WC =      100.0
 initial mixing is a Kerker type mixing with AMIX =  0.4000 and BMIX =      1.0000
 Hartree-type preconditioning will be used
 using additional bands           18
 reciprocal scheme for non local part
 use partial core corrections
 calculate Harris-corrections to forces 
   (improved forces if not selfconsistent)
 use gradient corrections 
 use of overlap-Matrix (Vanderbilt PP)
 Gauss-broadening in eV      SIGMA  =   0.10


--------------------------------------------------------------------------------------------------------


  energy-cutoff  :      380.00
  volume of cell :      934.36
      direct lattice vectors                 reciprocal lattice vectors
     5.147737367  0.000000000  0.000000000     0.194260105  0.000000000  0.000000000
     0.000000000  5.147737367  0.000000000     0.000000000  0.194260105  0.000000000
     0.000000000  0.000000000 35.260000000     0.000000000  0.000000000  0.028360749

  length of vectors
     5.147737367  5.147737367 35.260000000     0.194260105  0.194260105  0.028360749


 
 k-points in units of 2pi/SCALE and weight: K-Points                                
   0.02428251  0.02428251  0.00000000       0.125
  -0.02428251  0.02428251  0.00000000       0.125
   0.07284754  0.02428251  0.00000000       0.250
  -0.02428251  0.07284754  0.00000000       0.250
   0.07284754  0.07284754  0.00000000       0.125
  -0.07284754  0.07284754  0.00000000       0.125
 
 k-points in reciprocal lattice and weights: K-Points                                
   0.12500000  0.12500000  0.00000000       0.125
  -0.12500000  0.12500000  0.00000000       0.125
   0.37500000  0.12500000  0.00000000       0.250
  -0.12500000  0.37500000  0.00000000       0.250
   0.37500000  0.37500000  0.00000000       0.125
  -0.37500000  0.37500000  0.00000000       0.125
 
 position of ions in fractional coordinates (direct lattice) 
   0.25000000  0.25000000  0.99705048
   0.75000000  0.25000000  0.99705048
   0.25000000  0.75000000  0.99705048
   0.75000000  0.75000000  0.99705048
   0.00000000  0.00000000  0.04866704
   0.50000000  0.00000000  0.04866704
   0.00000000  0.50000000  0.04866704
   0.50000000  0.50000000  0.04866704
   0.25013283  0.25013283  0.09951600
   0.75014613  0.25015120  0.09992403
   0.25015120  0.75014613  0.09992403
   0.75015864  0.75015864  0.10060486
   0.99849245  0.99849245  0.15039328
   0.50201000  0.99851324  0.15039498
   0.99851324  0.50201000  0.15039498
   0.50198801  0.50198801  0.15039609
   0.25019813  0.25019813  0.20352735
 
 position of ions in cartesian coordinates  (Angst):
   1.28693434  1.28693434 35.15600000
   3.86080303  1.28693434 35.15600000
   1.28693434  3.86080303 35.15600000
   3.86080303  3.86080303 35.15600000
   0.00000000  0.00000000  1.71600000
   2.57386868  0.00000000  1.71600000
   0.00000000  2.57386868  1.71600000
   2.57386868  2.57386868  1.71600000
   1.28761811  1.28761811  3.50893422
   3.86155527  1.28771268  3.52332141
   1.28771268  3.86155527  3.52332141
   3.86161968  3.86161968  3.54732752
   5.13997687  5.13997687  5.30286716
   2.58421563  5.14008393  5.30292683
   5.14008393  2.58421563  5.30292683
   2.58410242  2.58410242  5.30296616
   1.28795424  1.28795424  7.17637434
 


--------------------------------------------------------------------------------------------------------


 k-point   1 :   0.1250 0.1250 0.0000  plane waves:   15739
 k-point   2 :  -0.1250 0.1250 0.0000  plane waves:   15739
 k-point   3 :   0.3750 0.1250 0.0000  plane waves:   15695
 k-point   4 :  -0.1250 0.3750 0.0000  plane waves:   15695
 k-point   5 :   0.3750 0.3750 0.0000  plane waves:   15772
 k-point   6 :  -0.3750 0.3750 0.0000  plane waves:   15772

 maximum and minimum number of plane-waves per node :     15772    15695

 maximum number of plane-waves:     15772
 maximum index in each direction: 
   IXMAX=    8   IYMAX=    8   IZMAX=   56
   IXMIN=   -8   IYMIN=   -8   IZMIN=  -56


 serial   3D FFT for wavefunctions
 parallel 3D FFT for charge:
    minimum data exchange during FFTs selected (reduces bandwidth)


 total amount of memory used by VASP MPI-rank0   235143. kBytes
=======================================================================

   base      :      30000. kBytes
   nonl-proj :      31544. kBytes
   fftplans  :      85862. kBytes
   grid      :      44250. kBytes
   one-center:        264. kBytes
   wavefun   :      43223. kBytes
 
     INWAV:  cpu time    0.0000: real time    0.0000
 Broyden mixing: mesh for mixing (old mesh)
   NGX = 17   NGY = 17   NGZ =113
  (NGX  = 72   NGY  = 72   NGZ  =448)
  gives a total of  32657 points

 initial charge density was supplied:
 charge density of overlapping atoms calculated
 number of electron     187.0000000 magnetization 
 keeping initial charge density in first step


--------------------------------------------------------------------------------------------------------


 Maximum index for augmentation-charges        29608 (set IRDMAX)


--------------------------------------------------------------------------------------------------------


 First call to EWALD:  gamma=   0.181
 Maximum number of real-space cells 5x 5x 1
 Maximum number of reciprocal cells 2x 2x 9

    FEWALD:  cpu time    0.0017: real time    0.0021


--------------------------------------- Iteration      1(   1)  ---------------------------------------


    POTLOK:  cpu time    0.2657: real time    0.2764
    SETDIJ:  cpu time    0.1898: real time    0.2271
     EDDAV:  cpu time    8.2732: real time    8.2852
       DOS:  cpu time    0.0012: real time    0.0025
    --------------------------------------------
      LOOP:  cpu time    8.7300: real time    8.7913

 eigenvalue-minimisations  :  1344
 total energy-change (2. order) : 0.1508655E+04  (-0.6322448E+04)
 number of electron     187.0000000 magnetization 
 augmentation part      187.0000000 magnetization 

 Free energy of the ion-electron system (eV)
  ---------------------------------------------------
  alpha Z        PSCENC =       228.37091057
  Ewald energy   TEWEN  =    196153.47579030
  -Hartree energ DENC   =   -218067.53063388
  -exchange      EXHF   =         0.00000000
  -V(xc)+E(xc)   XCENC  =       716.55356642
  PAW double counting   =     20654.76870738   -22302.12474825
  entropy T*S    EENTRO =        -0.03423081
  eigenvalues    EBANDS =       832.69606847
  atomic energy  EATOM  =     23292.47908388
  Solvation  Ediel_sol  =         0.00000000
  ---------------------------------------------------
  free energy    TOTEN  =      1508.65451408 eV

  energy without entropy =     1508.68874489  energy(sigma->0) =     1508.67162949


--------------------------------------------------------------------------------------------------------




--------------------------------------- Iteration      1(   2)  ---------------------------------------


     EDDAV:  cpu time    8.2945: real time    8.2943
       DOS:  cpu time    0.0008: real time    0.0008
    --------------------------------------------
      LOOP:  cpu time    8.2952: real time    8.2950

 eigenvalue-minimisations  :  1352
 total energy-change (2. order) :-0.1434324E+04  (-0.1381113E+04)
 number of electron     187.0000000 magnetization 
 augmentation part      187.0000000 magnetization 

 Free energy of the ion-electron system (eV)
  ---------------------------------------------------
  alpha Z        PSCENC =       228.37091057
  Ewald energy   TEWEN  =    196153.47579030
  -Hartree energ DENC   =   -218067.53063388
  -exchange      EXHF   =         0.00000000
  -V(xc)+E(xc)   XCENC  =       716.55356642
  PAW double counting   =     20654.76870738   -22302.12474825
  entropy T*S    EENTRO =        -0.04841272
  eigenvalues    EBANDS =      -601.61387745
  atomic energy  EATOM  =     23292.47908388
  Solvation  Ediel_sol  =         0.00000000
  ---------------------------------------------------
  free energy    TOTEN  =        74.33038625 eV

  energy without entropy =       74.37879897  energy(sigma->0) =       74.35459261


--------------------------------------------------------------------------------------------------------




--------------------------------------- Iteration      1(   3)  ---------------------------------------


     EDDAV:  cpu time    8.8914: real time    8.8909
       DOS:  cpu time    0.0007: real time    0.0007
    --------------------------------------------
      LOOP:  cpu time    8.8922: real time    8.8917

 eigenvalue-minimisations  :  1488
 total energy-change (2. order) :-0.1357867E+03  (-0.1239584E+03)
 number of electron     187.0000000 magnetization 
 augmentation part      187.0000000 magnetization 

 Free energy of the ion-electron system (eV)
  ---------------------------------------------------
  alpha Z        PSCENC =       228.37091057
  Ewald energy   TEWEN  =    196153.47579030
  -Hartree energ DENC   =   -218067.53063388
  -exchange      EXHF   =         0.00000000
  -V(xc)+E(xc)   XCENC  =       716.55356642
  PAW double counting   =     20654.76870738   -22302.12474825
  entropy T*S    EENTRO =        -0.05509407
  eigenvalues    EBANDS =      -737.39386421
  atomic energy  EATOM  =     23292.47908388
  Solvation  Ediel_sol  =         0.00000000
  ---------------------------------------------------
  free energy    TOTEN  =       -61.45628185 eV

  energy without entropy =      -61.40118779  energy(sigma->0) =      -61.42873482


--------------------------------------------------------------------------------------------------------




--------------------------------------- Iteration      1(   4)  ---------------------------------------


     EDDAV:  cpu time    9.8352: real time    9.8346
       DOS:  cpu time    0.0008: real time    0.0008
    --------------------------------------------
      LOOP:  cpu time    9.8359: real time    9.8354

 eigenvalue-minimisations  :  1704
 total energy-change (2. order) :-0.8364160E+01  (-0.8233532E+01)
 number of electron     187.0000000 magnetization 
 augmentation part      187.0000000 magnetization 

 Free energy of the ion-electron system (eV)
  ---------------------------------------------------
  alpha Z        PSCENC =       228.37091057
  Ewald energy   TEWEN  =    196153.47579030
  -Hartree energ DENC   =   -218067.53063388
  -exchange      EXHF   =         0.00000000
  -V(xc)+E(xc)   XCENC  =       716.55356642
  PAW double counting   =     20654.76870738   -22302.12474825
  entropy T*S    EENTRO =        -0.05661768
  eigenvalues    EBANDS =      -745.75650043
  atomic energy  EATOM  =     23292.47908388
  Solvation  Ediel_sol  =         0.00000000
  ---------------------------------------------------
  free energy    TOTEN  =       -69.82044168 eV

  energy without entropy =      -69.76382401  energy(sigma->0) =      -69.79213285


--------------------------------------------------------------------------------------------------------




--------------------------------------- Iteration      1(   5)  ---------------------------------------


     EDDAV:  cpu time    9.9085: real time    9.9081
       DOS:  cpu time    0.0008: real time    0.0008
    CHARGE:  cpu time    0.7015: real time    0.7091
    MIXING:  cpu time    0.0083: real time    0.0098
    --------------------------------------------
      LOOP:  cpu time   10.6191: real time   10.6277

 eigenvalue-minimisations  :  1720
 total energy-change (2. order) :-0.1919281E+00  (-0.1915722E+00)
 number of electron     187.0000016 magnetization 
 augmentation part      109.8054695 magnetization 

 Broyden mixing:
  rms(total) = 0.28601E+01    rms(broyden)= 0.28599E+01
  rms(prec ) = 0.29288E+01
  weight for this iteration     100.00

 Free energy of the ion-electron system (eV)
  ---------------------------------------------------
  alpha Z        PSCENC =       228.37091057
  Ewald energy   TEWEN  =    196153.47579030
  -Hartree energ DENC   =   -218067.53063388
  -exchange      EXHF   =         0.00000000
  -V(xc)+E(xc)   XCENC  =       716.55356642
  PAW double counting   =     20654.76870738   -22302.12474825
  entropy T*S    EENTRO =        -0.05694670
  eigenvalues    EBANDS =      -745.94809946
  atomic energy  EATOM  =     23292.47908388
  Solvation  Ediel_sol  =         0.00000000
  ---------------------------------------------------
  free energy    TOTEN  =       -70.01236975 eV

  energy without entropy =      -69.95542304  energy(sigma->0) =      -69.98389640


--------------------------------------------------------------------------------------------------------




--------------------------------------- Iteration      1(   6)  ---------------------------------------


    POTLOK:  cpu time    0.2495: real time    0.2570
    SETDIJ:  cpu time    0.1877: real time    0.1896
     EDDAV:  cpu time    8.8894: real time    8.8888
       DOS:  cpu time    0.0008: real time    0.0008
    CHARGE:  cpu time    0.6962: real time    0.6986
    MIXING:  cpu time    0.0079: real time    0.0079
    --------------------------------------------
      LOOP:  cpu time   10.0316: real time   10.0426

 eigenvalue-minimisations  :  1488
 total energy-change (2. order) : 0.6630643E+01  (-0.1561513E+02)
 number of electron     187.0000018 magnetization 
 augmentation part      122.4064904 magnetization 

 Broyden mixing:
  rms(total) = 0.15638E+01    rms(broyden)= 0.15635E+01
  rms(prec ) = 0.16118E+01
  weight for this iteration     100.00

 eigenvalues of (default mixing * dielectric matrix)
  average eigenvalue GAMMA=   0.6503
  0.6503

 Free energy of the ion-electron system (eV)
  ---------------------------------------------------
  alpha Z        PSCENC =       228.37091057
  Ewald energy   TEWEN  =    196153.47579030
  -Hartree energ DENC   =   -217663.07489239
  -exchange      EXHF   =         0.00000000
  -V(xc)+E(xc)   XCENC  =       695.51657754
  PAW double counting   =     20875.55559102   -22439.69053220
  entropy T*S    EENTRO =        -0.03333904
  eigenvalues    EBANDS =     -1205.98091603
  atomic energy  EATOM  =     23292.47908388
  Solvation  Ediel_sol  =         0.00000000
  ---------------------------------------------------
  free energy    TOTEN  =       -63.38172635 eV

  energy without entropy =      -63.34838731  energy(sigma->0) =      -63.36505683


--------------------------------------------------------------------------------------------------------




--------------------------------------- Iteration      1(   7)  ---------------------------------------


    POTLOK:  cpu time    0.2463: real time    0.2541
    SETDIJ:  cpu time    0.1874: real time    0.1893
     EDDAV:  cpu time    9.4551: real time    9.4544
       DOS:  cpu time    0.0008: real time    0.0008
    CHARGE:  cpu time    0.6979: real time    0.7003
    MIXING:  cpu time    0.0079: real time    0.0079
    --------------------------------------------
      LOOP:  cpu time   10.5953: real time   10.6067

 eigenvalue-minimisations  :  1616
 total energy-change (2. order) : 0.6119458E+01  (-0.3051219E+01)
 number of electron     187.0000018 magnetization 
 augmentation part      118.3765775 magnetization 

 Broyden mixing:
  rms(total) = 0.42779E+00    rms(broyden)= 0.42771E+00
  rms(prec ) = 0.44202E+00
  weight for this iteration     100.00

 eigenvalues of (default mixing * dielectric matrix)
  average eigenvalue GAMMA=   0.5284
  0.6374  0.4194

 Free energy of the ion-electron system (eV)
  ---------------------------------------------------
  alpha Z        PSCENC =       228.37091057
  Ewald energy   TEWEN  =    196153.47579030
  -Hartree energ DENC   =   -217894.22470409
  -exchange      EXHF   =         0.00000000
  -V(xc)+E(xc)   XCENC  =       702.25068330
  PAW double counting   =     21260.55004353   -22896.65379677
  entropy T*S    EENTRO =        -0.05298919
  eigenvalues    EBANDS =      -903.45729018
  atomic energy  EATOM  =     23292.47908388
  Solvation  Ediel_sol  =         0.00000000
  ---------------------------------------------------
  free energy    TOTEN  =       -57.26226865 eV

  energy without entropy =      -57.20927946  energy(sigma->0) =      -57.23577406


--------------------------------------------------------------------------------------------------------




--------------------------------------- Iteration      1(   8)  ---------------------------------------


    POTLOK:  cpu time    0.2471: real time    0.2547
    SETDIJ:  cpu time    0.1875: real time    0.1893
     EDDAV:  cpu time   10.0463: real time   10.0455
       DOS:  cpu time    0.0007: real time    0.0007
    CHARGE:  cpu time    0.6966: real time    0.6988
    MIXING:  cpu time    0.0082: real time    0.0082
    --------------------------------------------
      LOOP:  cpu time   11.1864: real time   11.1973

 eigenvalue-minimisations  :  1752
 total energy-change (2. order) :-0.1712543E+00  (-0.6039108E+00)
 number of electron     187.0000018 magnetization 
 augmentation part      117.7430216 magnetization 

 Broyden mixing:
  rms(total) = 0.26612E+00    rms(broyden)= 0.26608E+00
  rms(prec ) = 0.27317E+00
  weight for this iteration     100.00

 eigenvalues of (default mixing * dielectric matrix)
  average eigenvalue GAMMA=   0.6970
  1.1249  0.6017  0.3645

 Free energy of the ion-electron system (eV)
  ---------------------------------------------------
  alpha Z        PSCENC =       228.37091057
  Ewald energy   TEWEN  =    196153.47579030
  -Hartree energ DENC   =   -217904.40381703
  -exchange      EXHF   =         0.00000000
  -V(xc)+E(xc)   XCENC  =       702.45470033
  PAW double counting   =     21399.79900705   -23047.80245539
  entropy T*S    EENTRO =        -0.05451530
  eigenvalues    EBANDS =      -881.75222732
  atomic energy  EATOM  =     23292.47908388
  Solvation  Ediel_sol  =         0.00000000
  ---------------------------------------------------
  free energy    TOTEN  =       -57.43352291 eV

  energy without entropy =      -57.37900761  energy(sigma->0) =      -57.40626526


--------------------------------------------------------------------------------------------------------




--------------------------------------- Iteration      1(   9)  ---------------------------------------


    POTLOK:  cpu time    0.2464: real time    0.2543
    SETDIJ:  cpu time    0.1875: real time    0.1894
     EDDAV:  cpu time    9.5587: real time    9.5580
       DOS:  cpu time    0.0008: real time    0.0008
    CHARGE:  cpu time    0.6969: real time    0.6990
    MIXING:  cpu time    0.0086: real time    0.0086
    --------------------------------------------
      LOOP:  cpu time   10.6989: real time   10.7100

 eigenvalue-minimisations  :  1640
 total energy-change (2. order) :-0.1333251E-01  (-0.1432405E+00)
 number of electron     187.0000018 magnetization 
 augmentation part      117.3275074 magnetization 

 Broyden mixing:
  rms(total) = 0.23286E+00    rms(broyden)= 0.23284E+00
  rms(prec ) = 0.24059E+00
  weight for this iteration     100.00

 eigenvalues of (default mixing * dielectric matrix)
  average eigenvalue GAMMA=   0.7993
  1.6311  0.6022  0.6022  0.3617

 Free energy of the ion-electron system (eV)
  ---------------------------------------------------
  alpha Z        PSCENC =       228.37091057
  Ewald energy   TEWEN  =    196153.47579030
  -Hartree energ DENC   =   -217917.56115194
  -exchange      EXHF   =         0.00000000
  -V(xc)+E(xc)   XCENC  =       702.09091349
  PAW double counting   =     21617.76814192   -23281.74981250
  entropy T*S    EENTRO =        -0.05709690
  eigenvalues    EBANDS =      -852.26363423
  atomic energy  EATOM  =     23292.47908388
  Solvation  Ediel_sol  =         0.00000000
  ---------------------------------------------------
  free energy    TOTEN  =       -57.44685542 eV

  energy without entropy =      -57.38975853  energy(sigma->0) =      -57.41830697


--------------------------------------------------------------------------------------------------------




--------------------------------------- Iteration      1(  10)  ---------------------------------------


    POTLOK:  cpu time    0.2467: real time    0.2545
    SETDIJ:  cpu time    0.1877: real time    0.1895
     EDDAV:  cpu time    9.4158: real time    9.4151
       DOS:  cpu time    0.0008: real time    0.0008
    CHARGE:  cpu time    0.6965: real time    0.6988
    MIXING:  cpu time    0.0084: real time    0.0084
    --------------------------------------------
      LOOP:  cpu time   10.5559: real time   10.5670

 eigenvalue-minimisations  :  1608
 total energy-change (2. order) : 0.3407005E-01  (-0.5380685E-01)
 number of electron     187.0000018 magnetization 
 augmentation part      117.4450450 magnetization 

 Broyden mixing:
  rms(total) = 0.16051E+00    rms(broyden)= 0.16050E+00
  rms(prec ) = 0.17894E+00
  weight for this iteration     100.00

 eigenvalues of (default mixing * dielectric matrix)
  average eigenvalue GAMMA=   0.8740
  2.1196  0.7397  0.7397  0.3384  0.4327

 Free energy of the ion-electron system (eV)
  ---------------------------------------------------
  alpha Z        PSCENC =       228.37091057
  Ewald energy   TEWEN  =    196153.47579030
  -Hartree energ DENC   =   -217911.06673768
  -exchange      EXHF   =         0.00000000
  -V(xc)+E(xc)   XCENC  =       701.32997031
  PAW double counting   =     21733.44326248   -23403.32495472
  entropy T*S    EENTRO =        -0.05629080
  eigenvalues    EBANDS =      -852.06381972
  atomic energy  EATOM  =     23292.47908388
  Solvation  Ediel_sol  =         0.00000000
  ---------------------------------------------------
  free energy    TOTEN  =       -57.41278538 eV

  energy without entropy =      -57.35649458  energy(sigma->0) =      -57.38463998


--------------------------------------------------------------------------------------------------------




--------------------------------------- Iteration      1(  11)  ---------------------------------------


    POTLOK:  cpu time    0.2478: real time    0.2556
    SETDIJ:  cpu time    0.1873: real time    0.1891
     EDDAV:  cpu time   10.7409: real time   10.7402
       DOS:  cpu time    0.0008: real time    0.0008
    CHARGE:  cpu time    0.6998: real time    0.7020
    MIXING:  cpu time    0.0091: real time    0.0091
    --------------------------------------------
      LOOP:  cpu time   11.8858: real time   11.8968

 eigenvalue-minimisations  :  1912
 total energy-change (2. order) : 0.4737269E-01  (-0.4875439E-01)
 number of electron     187.0000018 magnetization 
 augmentation part      117.6164757 magnetization 

 Broyden mixing:
  rms(total) = 0.57574E-01    rms(broyden)= 0.57550E-01
  rms(prec ) = 0.76377E-01
  weight for this iteration     100.00

 eigenvalues of (default mixing * dielectric matrix)
  average eigenvalue GAMMA=   0.8777
  2.2579  0.8121  0.8121  0.6874  0.3809  0.3155

 Free energy of the ion-electron system (eV)
  ---------------------------------------------------
  alpha Z        PSCENC =       228.37091057
  Ewald energy   TEWEN  =    196153.47579030
  -Hartree energ DENC   =   -217905.04843050
  -exchange      EXHF   =         0.00000000
  -V(xc)+E(xc)   XCENC  =       700.63415718
  PAW double counting   =     21822.96632458   -23496.63846944
  entropy T*S    EENTRO =        -0.05791689
  eigenvalues    EBANDS =      -853.54686236
  atomic energy  EATOM  =     23292.47908388
  Solvation  Ediel_sol  =         0.00000000
  ---------------------------------------------------
  free energy    TOTEN  =       -57.36541268 eV

  energy without entropy =      -57.30749580  energy(sigma->0) =      -57.33645424


--------------------------------------------------------------------------------------------------------




--------------------------------------- Iteration      1(  12)  ---------------------------------------


    POTLOK:  cpu time    0.2486: real time    0.2562
    SETDIJ:  cpu time    0.1876: real time    0.1895
     EDDAV:  cpu time   11.2321: real time   11.2313
       DOS:  cpu time    0.0008: real time    0.0008
    CHARGE:  cpu time    0.6984: real time    0.7007
    MIXING:  cpu time    0.0089: real time    0.0089
    --------------------------------------------
      LOOP:  cpu time   12.3764: real time   12.3873

 eigenvalue-minimisations  :  2024
 total energy-change (2. order) : 0.8690099E-02  (-0.1678781E-01)
 number of electron     187.0000018 magnetization 
 augmentation part      117.7434191 magnetization 

 Broyden mixing:
  rms(total) = 0.24918E-01    rms(broyden)= 0.24909E-01
  rms(prec ) = 0.27485E-01
  weight for this iteration     100.00

 eigenvalues of (default mixing * dielectric matrix)
  average eigenvalue GAMMA=   0.8652
  2.1486  0.9524  0.9524  0.7627  0.5731  0.3775  0.2897

 Free energy of the ion-electron system (eV)
  ---------------------------------------------------
  alpha Z        PSCENC =       228.37091057
  Ewald energy   TEWEN  =    196153.47579030
  -Hartree energ DENC   =   -217905.31549925
  -exchange      EXHF   =         0.00000000
  -V(xc)+E(xc)   XCENC  =       700.42170860
  PAW double counting   =     21849.47909841   -23524.05744764
  entropy T*S    EENTRO =        -0.05757281
  eigenvalues    EBANDS =      -852.15279463
  atomic energy  EATOM  =     23292.47908388
  Solvation  Ediel_sol  =         0.00000000
  ---------------------------------------------------
  free energy    TOTEN  =       -57.35672258 eV

  energy without entropy =      -57.29914977  energy(sigma->0) =      -57.32793618


--------------------------------------------------------------------------------------------------------




--------------------------------------- Iteration      1(  13)  ---------------------------------------


    POTLOK:  cpu time    0.2480: real time    0.2559
    SETDIJ:  cpu time    0.1876: real time    0.1895
     EDDAV:  cpu time    8.9090: real time    8.9084
       DOS:  cpu time    0.0008: real time    0.0008
    CHARGE:  cpu time    0.6992: real time    0.7014
    MIXING:  cpu time    0.0093: real time    0.0093
    --------------------------------------------
      LOOP:  cpu time   10.0539: real time   10.0652

 eigenvalue-minimisations  :  1496
 total energy-change (2. order) :-0.2967179E-02  (-0.5298404E-02)
 number of electron     187.0000018 magnetization 
 augmentation part      117.7231502 magnetization 

 Broyden mixing:
  rms(total) = 0.21885E-01    rms(broyden)= 0.21883E-01
  rms(prec ) = 0.23059E-01
  weight for this iteration     100.00

 eigenvalues of (default mixing * dielectric matrix)
  average eigenvalue GAMMA=   0.9366
  2.1049  2.1049  0.8077  0.8077  0.5718  0.4395  0.3649  0.2916

 Free energy of the ion-electron system (eV)
  ---------------------------------------------------
  alpha Z        PSCENC =       228.37091057
  Ewald energy   TEWEN  =    196153.47579030
  -Hartree energ DENC   =   -217913.53615126
  -exchange      EXHF   =         0.00000000
  -V(xc)+E(xc)   XCENC  =       700.52010815
  PAW double counting   =     21854.90480902   -23530.32062322
  entropy T*S    EENTRO =        -0.05804634
  eigenvalues    EBANDS =      -843.19557086
  atomic energy  EATOM  =     23292.47908388
  Solvation  Ediel_sol  =         0.00000000
  ---------------------------------------------------
  free energy    TOTEN  =       -57.35968976 eV

  energy without entropy =      -57.30164342  energy(sigma->0) =      -57.33066659


--------------------------------------------------------------------------------------------------------




--------------------------------------- Iteration      1(  14)  ---------------------------------------


    POTLOK:  cpu time    0.2484: real time    0.2562
    SETDIJ:  cpu time    0.1874: real time    0.1893
     EDDAV:  cpu time    9.5782: real time    9.5775
       DOS:  cpu time    0.0008: real time    0.0008
    CHARGE:  cpu time    0.6984: real time    0.7005
    MIXING:  cpu time    0.0093: real time    0.0093
    --------------------------------------------
      LOOP:  cpu time   10.7225: real time   10.7336

 eigenvalue-minimisations  :  1648
 total energy-change (2. order) :-0.2796622E-04  (-0.1095216E-02)
 number of electron     187.0000018 magnetization 
 augmentation part      117.6885214 magnetization 

 Broyden mixing:
  rms(total) = 0.23638E-01    rms(broyden)= 0.23636E-01
  rms(prec ) = 0.24519E-01
  weight for this iteration     100.00

 eigenvalues of (default mixing * dielectric matrix)
  average eigenvalue GAMMA=   0.9575
  2.5725  2.0340  0.8207  0.8207  0.6758  0.6758  0.2944  0.3743  0.3498

 Free energy of the ion-electron system (eV)
  ---------------------------------------------------
  alpha Z        PSCENC =       228.37091057
  Ewald energy   TEWEN  =    196153.47579030
  -Hartree energ DENC   =   -217921.02070396
  -exchange      EXHF   =         0.00000000
  -V(xc)+E(xc)   XCENC  =       700.57848957
  PAW double counting   =     21861.22188961   -23537.52304338
  entropy T*S    EENTRO =        -0.05805784
  eigenvalues    EBANDS =      -834.88407647
  atomic energy  EATOM  =     23292.47908388
  Solvation  Ediel_sol  =         0.00000000
  ---------------------------------------------------
  free energy    TOTEN  =       -57.35971773 eV

  energy without entropy =      -57.30165989  energy(sigma->0) =      -57.33068881


--------------------------------------------------------------------------------------------------------




--------------------------------------- Iteration      1(  15)  ---------------------------------------


    POTLOK:  cpu time    0.2491: real time    0.2567
    SETDIJ:  cpu time    0.1873: real time    0.1892
     EDDAV:  cpu time    8.7320: real time    8.7313
       DOS:  cpu time    0.0008: real time    0.0008
    CHARGE:  cpu time    0.6988: real time    0.7010
    MIXING:  cpu time    0.0094: real time    0.0094
    --------------------------------------------
      LOOP:  cpu time    9.8773: real time    9.8884

 eigenvalue-minimisations  :  1456
 total energy-change (2. order) : 0.9228015E-03  (-0.4828000E-03)
 number of electron     187.0000018 magnetization 
 augmentation part      117.7312181 magnetization 

 Broyden mixing:
  rms(total) = 0.57308E-02    rms(broyden)= 0.57278E-02
  rms(prec ) = 0.68258E-02
  weight for this iteration     100.00

 eigenvalues of (default mixing * dielectric matrix)
  average eigenvalue GAMMA=   1.0042
  2.6437  1.5917  1.5917  1.0031  0.7761  0.7761  0.6378  0.2932  0.3780  0.3505

 Free energy of the ion-electron system (eV)
  ---------------------------------------------------
  alpha Z        PSCENC =       228.37091057
  Ewald energy   TEWEN  =    196153.47579030
  -Hartree energ DENC   =   -217922.03943829
  -exchange      EXHF   =         0.00000000
  -V(xc)+E(xc)   XCENC  =       700.48698013
  PAW double counting   =     21865.77885832   -23542.19651417
  entropy T*S    EENTRO =        -0.05784067
  eigenvalues    EBANDS =      -833.65662500
  atomic energy  EATOM  =     23292.47908388
  Solvation  Ediel_sol  =         0.00000000
  ---------------------------------------------------
  free energy    TOTEN  =       -57.35879493 eV

  energy without entropy =      -57.30095426  energy(sigma->0) =      -57.32987459


--------------------------------------------------------------------------------------------------------




--------------------------------------- Iteration      1(  16)  ---------------------------------------


    POTLOK:  cpu time    0.2484: real time    0.2563
    SETDIJ:  cpu time    0.1874: real time    0.1893
     EDDAV:  cpu time   11.1744: real time   11.1736
       DOS:  cpu time    0.0008: real time    0.0008
    CHARGE:  cpu time    0.6974: real time    0.6996
    MIXING:  cpu time    0.0100: real time    0.0100
    --------------------------------------------
      LOOP:  cpu time   12.3185: real time   12.3297

 eigenvalue-minimisations  :  2008
 total energy-change (2. order) :-0.2025079E-03  (-0.2001674E-03)
 number of electron     187.0000018 magnetization 
 augmentation part      117.7528149 magnetization 

 Broyden mixing:
  rms(total) = 0.11893E-01    rms(broyden)= 0.11892E-01
  rms(prec ) = 0.12460E-01
  weight for this iteration     100.00

 eigenvalues of (default mixing * dielectric matrix)
  average eigenvalue GAMMA=   1.0280
  2.5300  2.5300  1.5233  0.8613  0.8613  0.8013  0.5878  0.5878  0.2933  0.3806
  0.3509

 Free energy of the ion-electron system (eV)
  ---------------------------------------------------
  alpha Z        PSCENC =       228.37091057
  Ewald energy   TEWEN  =    196153.47579030
  -Hartree energ DENC   =   -217924.81040685
  -exchange      EXHF   =         0.00000000
  -V(xc)+E(xc)   XCENC  =       700.46103609
  PAW double counting   =     21864.07190229   -23540.45381231
  entropy T*S    EENTRO =        -0.05788879
  eigenvalues    EBANDS =      -830.89561261
  atomic energy  EATOM  =     23292.47908388
  Solvation  Ediel_sol  =         0.00000000
  ---------------------------------------------------
  free energy    TOTEN  =       -57.35899744 eV

  energy without entropy =      -57.30110864  energy(sigma->0) =      -57.33005304


--------------------------------------------------------------------------------------------------------




--------------------------------------- Iteration      1(  17)  ---------------------------------------


    POTLOK:  cpu time    0.2532: real time    0.2607
    SETDIJ:  cpu time    0.1881: real time    0.1899
     EDDAV:  cpu time    9.1044: real time    9.1037
       DOS:  cpu time    0.0008: real time    0.0008
    CHARGE:  cpu time    0.6973: real time    0.6994
    MIXING:  cpu time    0.0104: real time    0.0104
    --------------------------------------------
      LOOP:  cpu time   10.2541: real time   10.2650

 eigenvalue-minimisations  :  1536
 total energy-change (2. order) : 0.4971058E-04  (-0.2836651E-03)
 number of electron     187.0000018 magnetization 
 augmentation part      117.7072706 magnetization 

 Broyden mixing:
  rms(total) = 0.78011E-02    rms(broyden)= 0.77988E-02
  rms(prec ) = 0.81380E-02
  weight for this iteration     100.00

 eigenvalues of (default mixing * dielectric matrix)
  average eigenvalue GAMMA=   1.0135
  2.7224  2.7224  1.5044  0.9051  0.9051  0.6964  0.6413  0.5200  0.5200  0.2934
  0.3799  0.3511

 Free energy of the ion-electron system (eV)
  ---------------------------------------------------
  alpha Z        PSCENC =       228.37091057
  Ewald energy   TEWEN  =    196153.47579030
  -Hartree energ DENC   =   -217931.16133681
  -exchange      EXHF   =         0.00000000
  -V(xc)+E(xc)   XCENC  =       700.55739642
  PAW double counting   =     21857.32856219   -23533.88585872
  entropy T*S    EENTRO =        -0.05799450
  eigenvalues    EBANDS =      -824.46550105
  atomic energy  EATOM  =     23292.47908388
  Solvation  Ediel_sol  =         0.00000000
  ---------------------------------------------------
  free energy    TOTEN  =       -57.35894773 eV

  energy without entropy =      -57.30095323  energy(sigma->0) =      -57.32995048


--------------------------------------------------------------------------------------------------------




--------------------------------------- Iteration      1(  18)  ---------------------------------------


    POTLOK:  cpu time    0.2495: real time    0.2573
    SETDIJ:  cpu time    0.1879: real time    0.1897
     EDDAV:  cpu time    9.7345: real time    9.7339
       DOS:  cpu time    0.0008: real time    0.0008
    CHARGE:  cpu time    0.6967: real time    0.6989
    MIXING:  cpu time    0.0100: real time    0.0100
    --------------------------------------------
      LOOP:  cpu time   10.8794: real time   10.8905

 eigenvalue-minimisations  :  1680
 total energy-change (2. order) :-0.7918021E-04  (-0.3830948E-04)
 number of electron     187.0000018 magnetization 
 augmentation part      117.7047833 magnetization 

 Broyden mixing:
  rms(total) = 0.81653E-02    rms(broyden)= 0.81639E-02
  rms(prec ) = 0.84545E-02
  weight for this iteration     100.00

 eigenvalues of (default mixing * dielectric matrix)
  average eigenvalue GAMMA=   1.0367
  2.9260  2.1502  2.1502  0.8767  0.8767  0.8514  0.8514  0.7370  0.6741  0.2933
  0.3747  0.3499  0.3659

 Free energy of the ion-electron system (eV)
  ---------------------------------------------------
  alpha Z        PSCENC =       228.37091057
  Ewald energy   TEWEN  =    196153.47579030
  -Hartree energ DENC   =   -217932.46874450
  -exchange      EXHF   =         0.00000000
  -V(xc)+E(xc)   XCENC  =       700.55610535
  PAW double counting   =     21856.55096042   -23533.09255396
  entropy T*S    EENTRO =        -0.05802013
  eigenvalues    EBANDS =      -823.17255882
  atomic energy  EATOM  =     23292.47908388
  Solvation  Ediel_sol  =         0.00000000
  ---------------------------------------------------
  free energy    TOTEN  =       -57.35902691 eV

  energy without entropy =      -57.30100677  energy(sigma->0) =      -57.33001684


--------------------------------------------------------------------------------------------------------




--------------------------------------- Iteration      1(  19)  ---------------------------------------


    POTLOK:  cpu time    0.2505: real time    0.2584
    SETDIJ:  cpu time    0.1877: real time    0.1895
     EDDAV:  cpu time    8.6097: real time    8.6090
       DOS:  cpu time    0.0008: real time    0.0008
    CHARGE:  cpu time    0.6971: real time    0.6991
    MIXING:  cpu time    0.0105: real time    0.0105
    --------------------------------------------
      LOOP:  cpu time    9.7562: real time    9.7674

 eigenvalue-minimisations  :  1424
 total energy-change (2. order) :-0.6512024E-04  (-0.8120845E-04)
 number of electron     187.0000018 magnetization 
 augmentation part      117.7308998 magnetization 

 Broyden mixing:
  rms(total) = 0.22901E-02    rms(broyden)= 0.22847E-02
  rms(prec ) = 0.25399E-02
  weight for this iteration     100.00

 eigenvalues of (default mixing * dielectric matrix)
  average eigenvalue GAMMA=   1.1439
  3.9758  2.6680  1.9218  1.2807  0.9200  0.9200  0.8292  0.8292  0.6496  0.6496
  0.2933  0.3796  0.3528  0.3448

 Free energy of the ion-electron system (eV)
  ---------------------------------------------------
  alpha Z        PSCENC =       228.37091057
  Ewald energy   TEWEN  =    196153.47579030
  -Hartree energ DENC   =   -217932.66613690
  -exchange      EXHF   =         0.00000000
  -V(xc)+E(xc)   XCENC  =       700.50895841
  PAW double counting   =     21857.06699501   -23533.44544659
  entropy T*S    EENTRO =        -0.05800314
  eigenvalues    EBANDS =      -823.09124356
  atomic energy  EATOM  =     23292.47908388
  Solvation  Ediel_sol  =         0.00000000
  ---------------------------------------------------
  free energy    TOTEN  =       -57.35909203 eV

  energy without entropy =      -57.30108888  energy(sigma->0) =      -57.33009046


--------------------------------------------------------------------------------------------------------




--------------------------------------- Iteration      1(  20)  ---------------------------------------


    POTLOK:  cpu time    0.2517: real time    0.2596
    SETDIJ:  cpu time    0.1874: real time    0.1892
     EDDAV:  cpu time   10.1506: real time   10.1499
       DOS:  cpu time    0.0008: real time    0.0008
    CHARGE:  cpu time    0.6971: real time    0.6992
    MIXING:  cpu time    0.0107: real time    0.0107
    --------------------------------------------
      LOOP:  cpu time   11.2982: real time   11.3094

 eigenvalue-minimisations  :  1776
 total energy-change (2. order) :-0.2717150E-03  (-0.1211015E-04)
 number of electron     187.0000018 magnetization 
 augmentation part      117.7281216 magnetization 

 Broyden mixing:
  rms(total) = 0.13723E-02    rms(broyden)= 0.13645E-02
  rms(prec ) = 0.15083E-02
  weight for this iteration     100.00

 eigenvalues of (default mixing * dielectric matrix)
  average eigenvalue GAMMA=   1.1638
  4.5491  2.7613  1.8205  1.6518  0.9557  0.9557  0.8252  0.8252  0.6468  0.6468
  0.2933  0.4494  0.3800  0.3521  0.3445

 Free energy of the ion-electron system (eV)
  ---------------------------------------------------
  alpha Z        PSCENC =       228.37091057
  Ewald energy   TEWEN  =    196153.47579030
  -Hartree energ DENC   =   -217935.12904443
  -exchange      EXHF   =         0.00000000
  -V(xc)+E(xc)   XCENC  =       700.52185560
  PAW double counting   =     21855.41243929   -23531.79122609
  entropy T*S    EENTRO =        -0.05802013
  eigenvalues    EBANDS =      -820.64115272
  atomic energy  EATOM  =     23292.47908388
  Solvation  Ediel_sol  =         0.00000000
  ---------------------------------------------------
  free energy    TOTEN  =       -57.35936374 eV

  energy without entropy =      -57.30134361  energy(sigma->0) =      -57.33035368


--------------------------------------------------------------------------------------------------------




--------------------------------------- Iteration      1(  21)  ---------------------------------------


    POTLOK:  cpu time    0.2520: real time    0.2596
    SETDIJ:  cpu time    0.1878: real time    0.1896
     EDDAV:  cpu time    8.9429: real time    8.9423
       DOS:  cpu time    0.0007: real time    0.0007
    CHARGE:  cpu time    0.6978: real time    0.6999
    MIXING:  cpu time    0.0111: real time    0.0111
    --------------------------------------------
      LOOP:  cpu time   10.0923: real time   10.1031

 eigenvalue-minimisations  :  1504
 total energy-change (2. order) :-0.1285145E-03  (-0.3095831E-05)
 number of electron     187.0000018 magnetization 
 augmentation part      117.7262130 magnetization 

 Broyden mixing:
  rms(total) = 0.84993E-03    rms(broyden)= 0.83741E-03
  rms(prec ) = 0.95450E-03
  weight for this iteration     100.00

 eigenvalues of (default mixing * dielectric matrix)
  average eigenvalue GAMMA=   1.2010
  4.7949  2.7122  1.9527  1.9527  1.2893  0.8894  0.8894  0.8234  0.8234  0.6569
  0.6569  0.2933  0.3795  0.4055  0.3525  0.3435

 Free energy of the ion-electron system (eV)
  ---------------------------------------------------
  alpha Z        PSCENC =       228.37091057
  Ewald energy   TEWEN  =    196153.47579030
  -Hartree energ DENC   =   -217935.91814783
  -exchange      EXHF   =         0.00000000
  -V(xc)+E(xc)   XCENC  =       700.52622867
  PAW double counting   =     21855.35114412   -23531.74778915
  entropy T*S    EENTRO =        -0.05802147
  eigenvalues    EBANDS =      -819.83869134
  atomic energy  EATOM  =     23292.47908388
  Solvation  Ediel_sol  =         0.00000000
  ---------------------------------------------------
  free energy    TOTEN  =       -57.35949226 eV

  energy without entropy =      -57.30147079  energy(sigma->0) =      -57.33048152


--------------------------------------------------------------------------------------------------------




--------------------------------------- Iteration      1(  22)  ---------------------------------------


    POTLOK:  cpu time    0.2523: real time    0.2600
    SETDIJ:  cpu time    0.1874: real time    0.1893
     EDDAV:  cpu time    9.8926: real time    9.8919
       DOS:  cpu time    0.0008: real time    0.0008
    CHARGE:  cpu time    0.6987: real time    0.7010
    MIXING:  cpu time    0.0117: real time    0.0117
    --------------------------------------------
      LOOP:  cpu time   11.0434: real time   11.0546

 eigenvalue-minimisations  :  1720
 total energy-change (2. order) :-0.1552520E-03  (-0.1464863E-05)
 number of electron     187.0000018 magnetization 
 augmentation part      117.7249745 magnetization 

 Broyden mixing:
  rms(total) = 0.77195E-03    rms(broyden)= 0.75823E-03
  rms(prec ) = 0.82686E-03
  weight for this iteration     100.00

 eigenvalues of (default mixing * dielectric matrix)
  average eigenvalue GAMMA=   1.2488
  4.9189  3.2767  2.5400  1.5617  1.5617  0.8971  0.8971  0.8364  0.8364  0.7984
  0.6606  0.6606  0.2933  0.3796  0.4171  0.3519  0.3429

 Free energy of the ion-electron system (eV)
  ---------------------------------------------------
  alpha Z        PSCENC =       228.37091057
  Ewald energy   TEWEN  =    196153.47579030
  -Hartree energ DENC   =   -217936.30898905
  -exchange      EXHF   =         0.00000000
  -V(xc)+E(xc)   XCENC  =       700.52693891
  PAW double counting   =     21856.17764839   -23532.61096132
  entropy T*S    EENTRO =        -0.05800199
  eigenvalues    EBANDS =      -819.41206719
  atomic energy  EATOM  =     23292.47908388
  Solvation  Ediel_sol  =         0.00000000
  ---------------------------------------------------
  free energy    TOTEN  =       -57.35964751 eV

  energy without entropy =      -57.30164552  energy(sigma->0) =      -57.33064651


--------------------------------------------------------------------------------------------------------




--------------------------------------- Iteration      1(  23)  ---------------------------------------


    POTLOK:  cpu time    0.2545: real time    0.2622
    SETDIJ:  cpu time    0.1875: real time    0.1893
     EDDAV:  cpu time   10.4167: real time   10.4160
       DOS:  cpu time    0.0008: real time    0.0008
    CHARGE:  cpu time    0.6978: real time    0.7000
    MIXING:  cpu time    0.0111: real time    0.0111
    --------------------------------------------
      LOOP:  cpu time   11.5684: real time   11.5794

 eigenvalue-minimisations  :  1840
 total energy-change (2. order) :-0.1379165E-03  (-0.1036333E-05)
 number of electron     187.0000018 magnetization 
 augmentation part      117.7268433 magnetization 

 Broyden mixing:
  rms(total) = 0.52448E-03    rms(broyden)= 0.50409E-03
  rms(prec ) = 0.54726E-03
  weight for this iteration     100.00

 eigenvalues of (default mixing * dielectric matrix)
  average eigenvalue GAMMA=   1.2787
  5.6813  3.4611  2.4982  1.7429  1.7429  0.9515  0.9515  0.8173  0.8173  0.8142
  0.6684  0.6684  0.2933  0.4167  0.4167  0.3796  0.3520  0.3432

 Free energy of the ion-electron system (eV)
  ---------------------------------------------------
  alpha Z        PSCENC =       228.37091057
  Ewald energy   TEWEN  =    196153.47579030
  -Hartree energ DENC   =   -217936.68123707
  -exchange      EXHF   =         0.00000000
  -V(xc)+E(xc)   XCENC  =       700.52212451
  PAW double counting   =     21856.63193493   -23533.05472377
  entropy T*S    EENTRO =        -0.05800133
  eigenvalues    EBANDS =      -819.04566744
  atomic energy  EATOM  =     23292.47908388
  Solvation  Ediel_sol  =         0.00000000
  ---------------------------------------------------
  free energy    TOTEN  =       -57.35978542 eV

  energy without entropy =      -57.30178409  energy(sigma->0) =      -57.33078476


--------------------------------------------------------------------------------------------------------




--------------------------------------- Iteration      1(  24)  ---------------------------------------


    POTLOK:  cpu time    0.2546: real time    0.2623
    SETDIJ:  cpu time    0.1876: real time    0.1896
     EDDAV:  cpu time    9.7124: real time    9.7117
       DOS:  cpu time    0.0008: real time    0.0008
    CHARGE:  cpu time    0.6976: real time    0.6998
    MIXING:  cpu time    0.0118: real time    0.0118
    --------------------------------------------
      LOOP:  cpu time   10.8647: real time   10.8759

 eigenvalue-minimisations  :  1680
 total energy-change (2. order) :-0.5874006E-04  (-0.4255617E-06)
 number of electron     187.0000018 magnetization 
 augmentation part      117.7272063 magnetization 

 Broyden mixing:
  rms(total) = 0.32163E-03    rms(broyden)= 0.28722E-03
  rms(prec ) = 0.31934E-03
  weight for this iteration     100.00
  WARNING: grid for Broyden might be to small

 eigenvalues of (default mixing * dielectric matrix)
  average eigenvalue GAMMA=   1.3427
  6.1001  3.5716  2.3588  2.1185  2.1185  1.3316  0.9653  0.9653  0.8116  0.8116
  0.8357  0.6681  0.6681  0.2933  0.3430  0.3519  0.3796  0.4091  0.4091

 Free energy of the ion-electron system (eV)
  ---------------------------------------------------
  alpha Z        PSCENC =       228.37091057
  Ewald energy   TEWEN  =    196153.47579030
  -Hartree energ DENC   =   -217936.93898282
  -exchange      EXHF   =         0.00000000
  -V(xc)+E(xc)   XCENC  =       700.52177070
  PAW double counting   =     21856.64154059   -23533.05760748
  entropy T*S    EENTRO =        -0.05800646
  eigenvalues    EBANDS =      -818.79434345
  atomic energy  EATOM  =     23292.47908388
  Solvation  Ediel_sol  =         0.00000000
  ---------------------------------------------------
  free energy    TOTEN  =       -57.35984416 eV

  energy without entropy =      -57.30183771  energy(sigma->0) =      -57.33084094


--------------------------------------------------------------------------------------------------------




--------------------------------------- Iteration      1(  25)  ---------------------------------------


    POTLOK:  cpu time    0.2553: real time    0.2629
    SETDIJ:  cpu time    0.1874: real time    0.1893
     EDDAV:  cpu time    9.2956: real time    9.2950
       DOS:  cpu time    0.0007: real time    0.0007
    CHARGE:  cpu time    0.6976: real time    0.6997
    MIXING:  cpu time    0.0126: real time    0.0126
    --------------------------------------------
      LOOP:  cpu time   10.4492: real time   10.4602

 eigenvalue-minimisations  :  1584
 total energy-change (2. order) :-0.6432242E-04  (-0.3177781E-06)
 number of electron     187.0000018 magnetization 
 augmentation part      117.7280521 magnetization 

 Broyden mixing:
  rms(total) = 0.52930E-03    rms(broyden)= 0.50913E-03
  rms(prec ) = 0.52673E-03
  weight for this iteration     100.00

 eigenvalues of (default mixing * dielectric matrix)
  average eigenvalue GAMMA=   1.3713
  6.4688  4.0046  2.6380  2.0910  1.9038  1.5550  0.9654  0.9654  0.8224  0.8224
  0.8330  0.8330  0.6618  0.6618  0.2933  0.3430  0.3519  0.3796  0.4313  0.4004

 Free energy of the ion-electron system (eV)
  ---------------------------------------------------
  alpha Z        PSCENC =       228.37091057
  Ewald energy   TEWEN  =    196153.47579030
  -Hartree energ DENC   =   -217937.19369524
  -exchange      EXHF   =         0.00000000
  -V(xc)+E(xc)   XCENC  =       700.52119621
  PAW double counting   =     21856.45087869   -23532.84951676
  entropy T*S    EENTRO =        -0.05800616
  eigenvalues    EBANDS =      -818.55654997
  atomic energy  EATOM  =     23292.47908388
  Solvation  Ediel_sol  =         0.00000000
  ---------------------------------------------------
  free energy    TOTEN  =       -57.35990849 eV

  energy without entropy =      -57.30190232  energy(sigma->0) =      -57.33090540


[...]
             X         Y         Z           dx          dy          dz
      1.286934  1.286934 35.156000            0           0           0  
      3.860803  1.286934 35.156000            0           0           0  
      1.286934  3.860803 35.156000            0           0           0  
      3.860803  3.860803 35.156000            0           0           0  
      0.000000  0.000000  1.716000            0           0           0  
      2.573869  0.000000  1.716000            0           0           0  
      0.000000  2.573869  1.716000            0           0           0  
      2.573869  2.573869  1.716000            0           0           0  
      1.287618  1.287618  3.508934     0.008038   -0.009864    0.000172  
      3.861555  1.287713  3.523321     0.234824   -0.095147   -0.000192  
      1.287713  3.861555  3.523321     0.082311   -0.272192    0.000464  
      3.861620  3.861620  3.547328     0.267456   -0.309691   -0.000029  
      5.139977  5.139977  5.302867     0.044481   -0.029066   -0.039098  
      2.584216  5.140084  5.302927    -0.107599    0.102663   -0.536349  
      5.140084  2.584216  5.302927    -0.108118    0.102758    0.536796  
      2.584102  2.584102  5.302966     0.043308   -0.028126    0.039239  
      1.287954  1.287954  7.176374    -0.158146    0.183256   -0.000434  
 
  18 f  =    3.509180 THz    22.048829 2PiTHz  117.053647 cm-1    14.512808 meV
             X         Y         Z           dx          dy          dz
      1.286934  1.286934 35.156000            0           0           0  
      3.860803  1.286934 35.156000            0           0           0  
      1.286934  3.860803 35.156000            0           0           0  
      3.860803  3.860803 35.156000            0           0           0  
      0.000000  0.000000  1.716000            0           0           0  
      2.573869  0.000000  1.716000            0           0           0  
      0.000000  2.573869  1.716000            0           0           0  
      2.573869  2.573869  1.716000            0           0           0  
      1.287618  1.287618  3.508934    -0.038154    0.528513   -0.003077  
      3.861555  1.287713  3.523321    -0.038626   -0.472465   -0.003618  
      1.287713  3.861555  3.523321     0.034065    0.533260   -0.000173  
      3.861620  3.861620  3.547328     0.032309   -0.451956   -0.000369  
      5.139977  5.139977  5.302867    -0.015269   -0.003768    0.019665  
      2.584216  5.140084  5.302927     0.016180   -0.004640    0.022675  
      5.140084  2.584216  5.302927     0.018705   -0.010228   -0.027884  
      2.584102  2.584102  5.302966    -0.017523   -0.006194   -0.023567  
      1.287954  1.287954  7.176374     0.000543   -0.006926    0.005764  
 
  19 f  =    3.507755 THz    22.039876 2PiTHz  117.006117 cm-1    14.506915 meV
             X         Y         Z           dx          dy          dz
      1.286934  1.286934 35.156000            0           0           0  
      3.860803  1.286934 35.156000            0           0           0  
      1.286934  3.860803 35.156000            0           0           0  
      3.860803  3.860803 35.156000            0           0           0  
      0.000000  0.000000  1.716000            0           0           0  
      2.573869  0.000000  1.716000            0           0           0  
      0.000000  2.573869  1.716000            0           0           0  
      2.573869  2.573869  1.716000            0           0           0  
      1.287618  1.287618  3.508934    -0.528911   -0.037984    0.004227  
      3.861555  1.287713  3.523321    -0.533404    0.034069    0.001340  
      1.287713  3.861555  3.523321     0.472395   -0.038298    0.004033  
      3.861620  3.861620  3.547328     0.451286    0.032677    0.000366  
      5.139977  5.139977  5.302867     0.006146    0.015482   -0.022613  
      2.584216  5.140084  5.302927     0.008348   -0.018534    0.025478  
      5.140084  2.584216  5.302927     0.002098   -0.014374   -0.018609  
      2.584102  2.584102  5.302966     0.009178    0.018920    0.027986  
      1.287954  1.287954  7.176374     0.007070    0.000479   -0.007764  
 
  20 f  =    3.440359 THz    21.616410 2PiTHz  114.758004 cm-1    14.228184 meV
             X         Y         Z           dx          dy          dz
      1.286934  1.286934 35.156000            0           0           0  
      3.860803  1.286934 35.156000            0           0           0  
      1.286934  3.860803 35.156000            0           0           0  
      3.860803  3.860803 35.156000            0           0           0  
      0.000000  0.000000  1.716000            0           0           0  
      2.573869  0.000000  1.716000            0           0           0  
      0.000000  2.573869  1.716000            0           0           0  
      2.573869  2.573869  1.716000            0           0           0  
      1.287618  1.287618  3.508934    -0.006585   -0.005769   -0.433740  
      3.861555  1.287713  3.523321    -0.005830    0.004679   -0.183737  
      1.287713  3.861555  3.523321     0.005706   -0.005359   -0.183905  
      3.861620  3.861620  3.547328     0.005993    0.004767    0.052930  
      5.139977  5.139977  5.302867     0.172505    0.172368   -0.225880  
      2.584216  5.140084  5.302927    -0.170973    0.171576   -0.225705  
      5.140084  2.584216  5.302927     0.171565   -0.170766   -0.225230  
      2.584102  2.584102  5.302966    -0.171609   -0.171312   -0.226162  
      1.287954  1.287954  7.176374    -0.000462   -0.000150    0.549418  
 
  21 f  =    2.756289 THz    17.318277 2PiTHz   91.939914 cm-1    11.399101 meV
             X         Y         Z           dx          dy          dz
      1.286934  1.286934 35.156000            0           0           0  
      3.860803  1.286934 35.156000            0           0           0  
      1.286934  3.860803 35.156000            0           0           0  
      3.860803  3.860803 35.156000            0           0           0  
      0.000000  0.000000  1.716000            0           0           0  
      2.573869  0.000000  1.716000            0           0           0  
      0.000000  2.573869  1.716000            0           0           0  
      2.573869  2.573869  1.716000            0           0           0  
      1.287618  1.287618  3.508934     0.001151    0.001363    0.000543  
      3.861555  1.287713  3.523321     0.000833   -0.000165    0.000401  
      1.287713  3.861555  3.523321    -0.000448    0.001030    0.000247  
      3.861620  3.861620  3.547328    -0.000433   -0.000253    0.000090  
      5.139977  5.139977  5.302867     0.327572    0.328146   -0.186010  
      2.584216  5.140084  5.302927     0.328325   -0.328074    0.186939  
      5.140084  2.584216  5.302927    -0.327413    0.329111    0.186915  
      2.584102  2.584102  5.302966    -0.327729   -0.327746   -0.186440  
      1.287954  1.287954  7.176374    -0.000323   -0.001086   -0.000304  
 
  22 f  =    2.143315 THz    13.466844 2PiTHz   71.493286 cm-1     8.864041 meV
             X         Y         Z           dx          dy          dz
      1.286934  1.286934 35.156000            0           0           0  
      3.860803  1.286934 35.156000            0           0           0  
      1.286934  3.860803 35.156000            0           0           0  
      3.860803  3.860803 35.156000            0           0           0  
      0.000000  0.000000  1.716000            0           0           0  
      2.573869  0.000000  1.716000            0           0           0  
      0.000000  2.573869  1.716000            0           0           0  
      2.573869  2.573869  1.716000            0           0           0  
      1.287618  1.287618  3.508934    -0.056771   -0.248812    0.000266  
      3.861555  1.287713  3.523321    -0.036848   -0.280120    0.000493  
      1.287713  3.861555  3.523321    -0.063936   -0.161493    0.000441  
      3.861620  3.861620  3.547328    -0.035006   -0.153387    0.000594  
      5.139977  5.139977  5.302867    -0.020440   -0.267008    0.210288  
      2.584216  5.140084  5.302927    -0.111765   -0.294272    0.132808  
      5.140084  2.584216  5.302927    -0.107371   -0.288416   -0.130480  
      2.584102  2.584102  5.302966    -0.016539   -0.273752   -0.208632  
      1.287954  1.287954  7.176374     0.129456    0.565881    0.002539  
 
  23 f  =    2.141743 THz    13.456969 2PiTHz   71.440859 cm-1     8.857541 meV
             X         Y         Z           dx          dy          dz
      1.286934  1.286934 35.156000            0           0           0  
      3.860803  1.286934 35.156000            0           0           0  
      1.286934  3.860803 35.156000            0           0           0  
      3.860803  3.860803 35.156000            0           0           0  
      0.000000  0.000000  1.716000            0           0           0  
      2.573869  0.000000  1.716000            0           0           0  
      0.000000  2.573869  1.716000            0           0           0  
      2.573869  2.573869  1.716000            0           0           0  
      1.287618  1.287618  3.508934    -0.249024    0.056868    0.000200  
      3.861555  1.287713  3.523321    -0.161664    0.063990    0.000231  
      1.287713  3.861555  3.523321    -0.280244    0.036981    0.000427  
      3.861620  3.861620  3.547328    -0.153407    0.035084    0.000520  
      5.139977  5.139977  5.302867    -0.286058    0.105016    0.132491  
      2.584216  5.140084  5.302927    -0.265648    0.023647   -0.208637  
      5.140084  2.584216  5.302927    -0.275341    0.013762    0.210060  
      2.584102  2.584102  5.302966    -0.296603    0.114400   -0.130816  
      1.287954  1.287954  7.176374     0.565570   -0.128885    0.001888  
 
  24 f  =    2.091401 THz    13.140660 2PiTHz   69.761627 cm-1     8.649343 meV
             X         Y         Z           dx          dy          dz
      1.286934  1.286934 35.156000            0           0           0  
      3.860803  1.286934 35.156000            0           0           0  
      1.286934  3.860803 35.156000            0           0           0  
      3.860803  3.860803 35.156000            0           0           0  
      0.000000  0.000000  1.716000            0           0           0  
      2.573869  0.000000  1.716000            0           0           0  
      0.000000  2.573869  1.716000            0           0           0  
      2.573869  2.573869  1.716000            0           0           0  
      1.287618  1.287618  3.508934    -0.003591    0.003168   -0.000209  
      3.861555  1.287713  3.523321    -0.002588    0.002478   -0.000214  
      1.287713  3.861555  3.523321    -0.002966    0.002204   -0.000292  
      3.861620  3.861620  3.547328    -0.001517    0.001149   -0.000283  
      5.139977  5.139977  5.302867    -0.357705    0.356660    0.000056  
      2.584216  5.140084  5.302927    -0.356989   -0.350834   -0.004945  
      5.140084  2.584216  5.302927     0.350548    0.355976    0.003930  
      2.584102  2.584102  5.302966     0.349741   -0.349614   -0.000512  
      1.287954  1.287954  7.176374     0.006287   -0.005520   -0.000617  
 
  25 f  =    1.838105 THz    11.549155 2PiTHz   61.312584 cm-1     7.601794 meV
             X         Y         Z           dx          dy          dz
      1.286934  1.286934 35.156000            0           0           0  
      3.860803  1.286934 35.156000            0           0           0  
      1.286934  3.860803 35.156000            0           0           0  
      3.860803  3.860803 35.156000            0           0           0  
      0.000000  0.000000  1.716000            0           0           0  
      2.573869  0.000000  1.716000            0           0           0  
      0.000000  2.573869  1.716000            0           0           0  
      2.573869  2.573869  1.716000            0           0           0  
      1.287618  1.287618  3.508934     0.000598    0.000393    0.142957  
      3.861555  1.287713  3.523321     0.000291    0.000564    0.187515  
      1.287713  3.861555  3.523321     0.000732    0.000172    0.187569  
      3.861620  3.861620  3.547328     0.000330    0.000174    0.235416  
      5.139977  5.139977  5.302867     0.031180    0.031757    0.318193  
      2.584216  5.140084  5.302927    -0.031121    0.031634    0.319192  
      5.140084  2.584216  5.302927     0.032551   -0.030635    0.319134  
      2.584102  2.584102  5.302966    -0.030389   -0.031501    0.320422  
      1.287954  1.287954  7.176374    -0.002903   -0.002786    0.662019  
 
  26 f  =    1.269794 THz     7.978353 2PiTHz   42.355781 cm-1     5.251449 meV
             X         Y         Z           dx          dy          dz
      1.286934  1.286934 35.156000            0           0           0  
      3.860803  1.286934 35.156000            0           0           0  
      1.286934  3.860803 35.156000            0           0           0  
      3.860803  3.860803 35.156000            0           0           0  
      0.000000  0.000000  1.716000            0           0           0  
      2.573869  0.000000  1.716000            0           0           0  
      0.000000  2.573869  1.716000            0           0           0  
      2.573869  2.573869  1.716000            0           0           0  
      1.287618  1.287618  3.508934     0.078373    0.122269    0.000409  
      3.861555  1.287713  3.523321     0.095785    0.130074    0.000477  
      1.287713  3.861555  3.523321     0.083355    0.149476    0.000488  
      3.861620  3.861620  3.547328     0.107045    0.167107    0.000443  
      5.139977  5.139977  5.302867     0.168526    0.248930    0.070067  
      2.584216  5.140084  5.302927     0.137814    0.229273    0.015868  
      5.140084  2.584216  5.302927     0.137777    0.229281   -0.014502  
      2.584102  2.584102  5.302966     0.168537    0.248814   -0.068420  
      1.287954  1.287954  7.176374     0.400133    0.624649    0.001175  
 
  27 f  =    1.267979 THz     7.966949 2PiTHz   42.295238 cm-1     5.243943 meV
             X         Y         Z           dx          dy          dz
      1.286934  1.286934 35.156000            0           0           0  
      3.860803  1.286934 35.156000            0           0           0  
      1.286934  3.860803 35.156000            0           0           0  
      3.860803  3.860803 35.156000            0           0           0  
      0.000000  0.000000  1.716000            0           0           0  
      2.573869  0.000000  1.716000            0           0           0  
      0.000000  2.573869  1.716000            0           0           0  
      2.573869  2.573869  1.716000            0           0           0  
      1.287618  1.287618  3.508934     0.122181   -0.078220    0.000037  
      3.861555  1.287713  3.523321     0.149372   -0.083218    0.000011  
      1.287713  3.861555  3.523321     0.129882   -0.095618    0.000104  
      3.861620  3.861620  3.547328     0.166901   -0.106921    0.000016  
      5.139977  5.139977  5.302867     0.228703   -0.137343    0.015305  
      2.584216  5.140084  5.302927     0.248478   -0.168718   -0.069409  
      5.140084  2.584216  5.302927     0.249094   -0.168278    0.069449  
      2.584102  2.584102  5.302966     0.229342   -0.137767   -0.015043  
      1.287954  1.287954  7.176374     0.625015   -0.400441    0.000185  
 
 Finite differences POTIM=  4.000000000000000E-002
  LATTYP: Found a simple tetragonal cell.
 ALAT       =     5.1477373670
 C/A-ratio  =     6.8496112925
  
  Lattice vectors:
  
 A1 = (   5.1477373670,   0.0000000000,   0.0000000000)
 A2 = (   0.0000000000,   5.1477373670,   0.0000000000)
 A3 = (   0.0000000000,   0.0000000000,  35.2600000000)


Analysis of symmetry for initial positions (statically):
=====================================================================
 Subroutine PRICEL returns:
 Original cell was already a primitive cell.
 

 Routine SETGRP: Setting up the symmetry group for a 
 simple tetragonal supercell.


 Subroutine GETGRP returns: Found  2 space group operations
 (whereof  2 operations were pure point group operations)
 out of a pool of 16 trial point group operations.


The static configuration has the point symmetry C_1h.


Analysis of symmetry for dynamics (positions and initial velocities):
=====================================================================
 Subroutine PRICEL returns:
 Original cell was already a primitive cell.
 

 Routine SETGRP: Setting up the symmetry group for a 
 simple tetragonal supercell.


 Subroutine GETGRP returns: Found  2 space group operations
 (whereof  2 operations were pure point group operations)
 out of a pool of 16 trial point group operations.


The dynamic configuration has the point symmetry C_1h.


Analysis of constrained symmetry for selective dynamics:
=====================================================================
 Subroutine PRICEL returns:
 Original cell was already a primitive cell.
 

 Routine SETGRP: Setting up the symmetry group for a 
 simple tetragonal supercell.


 Subroutine GETGRP returns: Found  2 space group operations
 (whereof  2 operations were pure point group operations)
 out of a pool of 16 trial point group operations.


The constrained configuration has the point symmetry C_1h.


 Subroutine INISYM returns: Found  2 space group operations
 (whereof  2 operations are pure point group operations),
 and found     1 'primitive' translations

 
 KPOINTS: K-Points                                

Automatic generation of k-mesh.
Space group operators:
 irot       det(A)        alpha          n_x          n_y          n_z        tau_x        tau_y        tau_z
    1     1.000000     0.000000     1.000000     0.000000     0.000000     0.000000     0.000000     0.000000
    2    -1.000000   180.000000     0.707107    -0.707107     0.000000     0.000000     0.000000     0.000000
 
 Subroutine IBZKPT returns following result:
 ===========================================
 
 Found      6 irreducible k-points:
 
 Following reciprocal coordinates:
            Coordinates               Weight
  0.125000  0.125000  0.000000      2.000000
 -0.125000  0.125000  0.000000      2.000000
  0.375000  0.125000  0.000000      4.000000
 -0.125000  0.375000  0.000000      4.000000
  0.375000  0.375000  0.000000      2.000000
 -0.375000  0.375000  0.000000      2.000000
 
 Following cartesian coordinates:
            Coordinates               Weight
  0.024283  0.024283  0.000000      2.000000
 -0.024283  0.024283  0.000000      2.000000
  0.072848  0.024283  0.000000      4.000000
 -0.024283  0.072848  0.000000      4.000000
  0.072848  0.072848  0.000000      2.000000
 -0.072848  0.072848  0.000000      2.000000
 
 writing wavefunctions
     LOOP+:  cpu time  238.7617: real time  239.2467
    4ORBIT:  cpu time    0.0001: real time    0.0031

 total amount of memory used by VASP MPI-rank0   235143. kBytes
=======================================================================

   base      :      30000. kBytes
   nonl-proj :      31544. kBytes
   fftplans  :      85862. kBytes
   grid      :      44250. kBytes
   one-center:        264. kBytes
   wavefun   :      43223. kBytes
 
  
  
 General timing and accounting informations for this job:
 ========================================================
  
                  Total CPU time used (sec):    11689.244
                            User time (sec):    11625.902
                          System time (sec):       63.342
                         Elapsed time (sec):    11704.749
  
                   Maximum memory used (kb):      453836.
                   Average memory used (kb):           0.
  
                          Minor page faults:      4244956
                          Major page faults:          297
                 Voluntary context switches:       328739
