 vasp.6.1.0 28Jan20 (build May 12 2023 01:18:31) complex                        
  
 executed on             LinuxIFC date 2023.06.17  03:05:09
 running on    4 total cores
 distrk:  each k-point on    4 cores,    1 groups
 distr:  one band on NCORE=   1 cores,    4 groups


--------------------------------------------------------------------------------------------------------


 INCAR:
 POTCAR:    PAW_PBE Cu 22Jun2005                  
 POTCAR:    PAW_PBE Ag 02Apr2005                  
 POTCAR:    PAW_PBE Cu 22Jun2005                  
   VRHFIN =Cu: d10 p1                                                                               
   LEXCH  = PE                                                                                      
   EATOM  =  1390.9808 eV,  102.2342 Ry                                                             
                                                                                                    
   TITEL  = PAW_PBE Cu 22Jun2005                                                                    
   LULTRA =        F    use ultrasoft PP ?                                                          
   IUNSCR =        1    unscreen: 0-lin 1-nonlin 2-no                                               
   RPACOR =    2.000    partial core radius                                                         
   POMASS =   63.546; ZVAL   =   11.000    mass and valenz                                          
   RCORE  =    2.300    outmost cutoff radius                                                       
   RWIGS  =    2.200; RWIGS  =    1.164    wigner-seitz radius (au A)                               
   ENMAX  =  295.446; ENMIN  =  221.585 eV                                                          
   ICORE  =        3    local potential                                                             
   LCOR   =        T    correct aug charges                                                         
   LPAW   =        T    paw PP                                                                      
   EAUG   =  586.980                                                                                
   DEXC   =    0.000                                                                                
   RMAX   =    2.344    core radius for proj-oper                                                   
   RAUG   =    1.300    factor for augmentation sphere                                              
   RDEP   =    2.302    radius for radial grids                                                     
   RDEPT  =    1.771    core radius for aug-charge                                                  
                                                                                                    
   Atomic configuration                                                                             
    9 entries                                                                                       
     n  l   j            E        occ.                                                              
     1  0  0.50     -8850.2468   2.0000                                                             
     2  0  0.50     -1062.3498   2.0000                                                             
     2  1  1.50      -916.8226   6.0000                                                             
     3  0  0.50      -114.6929   2.0000                                                             
     3  1  1.50       -72.1325   6.0000                                                             
     3  2  2.50        -5.0394  10.0000                                                             
     4  0  0.50        -4.6097   1.0000                                                             
     4  1  0.50        -4.0817   0.0000                                                             
     4  3  2.50        -1.3606   0.0000                                                             
   Description                                                                                      
     l       E           TYP  RCUT    TYP  RCUT                                                     
     2     -5.0393973     23  2.200                                                                 
     2     10.8846608     23  2.200                                                                 
     0     -4.6097109     23  2.200                                                                 
     0      8.2520465     23  2.200                                                                 
     1     -2.7211652     23  2.200                                                                 
     1     21.7055443     23  2.200                                                                 
     3      2.7211652     23  2.300                                                                 
  local pseudopotential read in
  partial core-charges read in
  partial kinetic energy density read in
  atomic valenz-charges read in
  non local Contribution for L=           2  read in
    real space projection operators read in
  non local Contribution for L=           2  read in
    real space projection operators read in
  non local Contribution for L=           0  read in
    real space projection operators read in
  non local Contribution for L=           0  read in
    real space projection operators read in
  non local Contribution for L=           1  read in
    real space projection operators read in
  non local Contribution for L=           1  read in
    real space projection operators read in
    PAW grid and wavefunctions read in
 
   number of l-projection  operators is LMAX  =           6
   number of lm-projection operators is LMMAX =          18
 
 POTCAR:    PAW_PBE Ag 02Apr2005                  
   VRHFIN =Ag : s1 d10                                                                              
   LEXCH  = PE                                                                                      
   EATOM  =  1037.2675 eV,   76.2370 Ry                                                             
                                                                                                    
   TITEL  = PAW_PBE Ag 02Apr2005                                                                    
   LULTRA =        F    use ultrasoft PP ?                                                          
   IUNSCR =        1    unscreen: 0-lin 1-nonlin 2-no                                               
   RPACOR =    2.000    partial core radius                                                         
   POMASS =  107.868; ZVAL   =   11.000    mass and valenz                                          
   RCORE  =    2.500    outmost cutoff radius                                                       
   RWIGS  =    2.840; RWIGS  =    1.503    wigner-seitz radius (au A)                               
   ENMAX  =  249.844; ENMIN  =  187.383 eV                                                          
   ICORE  =        3    local potential                                                             
   LCOR   =        T    correct aug charges                                                         
   LPAW   =        T    paw PP                                                                      
   EAUG   =  412.496                                                                                
   DEXC   =    0.000                                                                                
   RMAX   =    2.560    core radius for proj-oper                                                   
   RAUG   =    1.300    factor for augmentation sphere                                              
   RDEP   =    2.576    radius for radial grids                                                     
   RDEPT  =    2.072    core radius for aug-charge                                                  
                                                                                                    
   Atomic configuration                                                                             
   12 entries                                                                                       
     n  l   j            E        occ.                                                              
     1  0  0.50    -25324.9161   2.0000                                                             
     2  0  0.50     -3728.5341   2.0000                                                             
     2  1  1.50     -3344.0404   6.0000                                                             
     3  0  0.50      -683.5581   2.0000                                                             
     3  1  1.50      -557.3225   6.0000                                                             
     3  2  2.50      -358.3853  10.0000                                                             
     4  0  0.50       -95.0341   2.0000                                                             
     4  1  1.50       -58.5511   6.0000                                                             
     4  2  2.50        -7.4440  10.0000                                                             
     5  0  0.50        -4.4045   1.0000                                                             
     5  1  0.50        -1.3606   0.0000                                                             
     4  3  2.50        -1.3606   0.0000                                                             
   Description                                                                                      
     l       E           TYP  RCUT    TYP  RCUT                                                     
     2     -7.4439781     23  2.400                                                                 
     2     -8.8045607     23  2.400                                                                 
     0     -4.4044681     23  2.400                                                                 
     0      1.9520038     23  2.400                                                                 
     1     -1.3605826     23  2.500                                                                 
     1     27.2116520     23  2.500                                                                 
     3     -4.0817478     23  2.400                                                                 
  local pseudopotential read in
  partial core-charges read in
  partial kinetic energy density read in
  atomic valenz-charges read in
  non local Contribution for L=           2  read in
    real space projection operators read in
  non local Contribution for L=           2  read in
    real space projection operators read in
  non local Contribution for L=           0  read in
    real space projection operators read in
  non local Contribution for L=           0  read in
    real space projection operators read in
  non local Contribution for L=           1  read in
    real space projection operators read in
  non local Contribution for L=           1  read in
    real space projection operators read in
    PAW grid and wavefunctions read in
 
   number of l-projection  operators is LMAX  =           6
   number of lm-projection operators is LMMAX =          18
 
 Optimization of the real space projectors (new method)

 maximal supplied QI-value         = 16.25
 optimisation between [QCUT,QGAM] = [  9.91, 19.83] = [ 27.52,110.08] Ry 
 Optimized for a Real-space Cutoff    1.64 Angstroem

   l    n(q)    QCUT    max X(q) W(low)/X(q) W(high)/X(q)  e(spline) 
   2      9     9.914     4.610    0.13E-03    0.16E-03    0.22E-06
   2      9     9.914     8.522    0.22E-03    0.27E-03    0.38E-06
   0     10     9.914    51.609    0.51E-04    0.44E-04    0.14E-06
   0     10     9.914    27.747    0.48E-04    0.41E-04    0.13E-06
   1      9     9.914    20.408    0.16E-04    0.53E-04    0.12E-06
   1      9     9.914    13.425    0.14E-04    0.45E-04    0.11E-06
 Optimization of the real space projectors (new method)

 maximal supplied QI-value         = 15.12
 optimisation between [QCUT,QGAM] = [  9.98, 19.96] = [ 27.88,111.51] Ry 
 Optimized for a Real-space Cutoff    1.55 Angstroem

   l    n(q)    QCUT    max X(q) W(low)/X(q) W(high)/X(q)  e(spline) 
   2      8     9.978    53.897    0.14E-03    0.18E-04    0.10E-06
   2      8     9.978    52.416    0.14E-03    0.16E-04    0.11E-06
   0      9     9.978   122.045    0.49E-04    0.35E-04    0.80E-07
   0      9     9.978    73.629    0.45E-04    0.33E-04    0.77E-07
   1      9     9.978    15.255    0.10E-03    0.60E-04    0.12E-06
   1      9     9.978     9.562    0.85E-04    0.48E-04    0.10E-06
  PAW_PBE Cu 22Jun2005                  :
 energy of atom  1       EATOM=-1390.9808
 kinetic energy error for atom=    0.0292 (will be added to EATOM!!)
  PAW_PBE Ag 02Apr2005                  :
 energy of atom  2       EATOM=-1037.2675
 kinetic energy error for atom=    0.0139 (will be added to EATOM!!)
 
 
 POSCAR: Cu Ag
  positions in direct lattice
  No initial velocities read in
 exchange correlation table for  LEXCH =        8
   RHO(1)=    0.500       N(1)  =     2000
   RHO(2)=  100.500       N(2)  =     4000

 VTST: version 4.0, (05/15/20)

 CHAIN: initializing optimizer
 
 OPT: Using VASP Conjugate-Gradient optimizer
 CHAIN: Read ICHAIN            0
 
 POSCAR: Cu Ag
  positions in direct lattice
  No initial velocities read in
 


--------------------------------------------------------------------------------------------------------


 ion  position               nearest neighbor table
   1  0.250  0.250  0.997-   5 2.57   6 2.57   7 2.57   8 2.57   2 2.57   3 2.57   3 2.57   2 2.57

   2  0.750  0.250  0.997-   5 2.57   6 2.57   7 2.57   8 2.57   1 2.57   4 2.57   4 2.57   1 2.57

   3  0.250  0.750  0.997-   5 2.57   6 2.57   7 2.57   8 2.57   1 2.57   4 2.57   1 2.57   4 2.57

   4  0.750  0.750  0.997-   5 2.57   6 2.57   7 2.57   8 2.57   2 2.57   3 2.57   2 2.57   3 2.57

   5  0.000  0.000  0.049-   1 2.57   2 2.57   3 2.57   4 2.57   9 2.57  10 2.57  11 2.57  12 2.57
                             6 2.57   7 2.57   7 2.57   6 2.57
   6  0.500  0.000  0.049-   1 2.57   2 2.57   3 2.57   4 2.57   9 2.57  10 2.57  11 2.57  12 2.57
                             5 2.57   8 2.57   8 2.57   5 2.57
   7  0.000  0.500  0.049-   1 2.57   2 2.57   3 2.57   4 2.57   9 2.57  10 2.57  11 2.57  12 2.57
                             5 2.57   8 2.57   5 2.57   8 2.57
   8  0.500  0.500  0.049-   1 2.57   2 2.57   3 2.57   4 2.57   9 2.57  10 2.57  11 2.57  12 2.57
                             6 2.57   7 2.57   6 2.57   7 2.57
   9  0.250  0.250  0.100-   5 2.57   6 2.57   7 2.57   8 2.57  10 2.57  11 2.57  11 2.57  10 2.57
                            15 2.57  16 2.57  13 2.57  14 2.57
  10  0.750  0.250  0.100-   5 2.57   6 2.57   7 2.57   8 2.57   9 2.57  12 2.57  12 2.57   9 2.57
                            15 2.57  16 2.57  13 2.57  14 2.57
  11  0.250  0.750  0.100-   5 2.57   6 2.57   7 2.57   8 2.57   9 2.57  12 2.57   9 2.57  12 2.57
                            15 2.57  16 2.57  13 2.57  14 2.57
  12  0.750  0.750  0.100-   5 2.57   6 2.57   7 2.57   8 2.57  10 2.57  11 2.57  10 2.57  11 2.57
                            15 2.57  16 2.57  13 2.57  14 2.57
  13  0.000  0.000  0.152-  14 2.57  15 2.57  15 2.57  14 2.57   9 2.57  10 2.57  11 2.57  12 2.57
                            17 2.58
  14  0.500  0.000  0.152-  17 2.56  16 2.57  13 2.57  16 2.57  13 2.57  10 2.57  11 2.57  12 2.57
                             9 2.57
  15  0.000  0.500  0.152-  17 2.56  16 2.57  13 2.57  13 2.57  16 2.57  10 2.57  11 2.57  12 2.57
                             9 2.57
  16  0.500  0.500  0.152-  17 2.54  15 2.57  14 2.57  14 2.57  15 2.57  10 2.57  11 2.57  12 2.57
                             9 2.57
  17  0.255  0.255  0.203-  16 2.54  15 2.56  14 2.56  13 2.58
 
  LATTYP: Found a simple tetragonal cell.
 ALAT       =     5.1477373670
 C/A-ratio  =     6.8496112925
  
  Lattice vectors:
  
 A1 = (   5.1477373670,   0.0000000000,   0.0000000000)
 A2 = (   0.0000000000,   5.1477373670,   0.0000000000)
 A3 = (   0.0000000000,   0.0000000000,  35.2600000000)


Analysis of symmetry for initial positions (statically):
=====================================================================
 Subroutine PRICEL returns:
 Original cell was already a primitive cell.
 

 Routine SETGRP: Setting up the symmetry group for a 
 simple tetragonal supercell.


 Subroutine GETGRP returns: Found  2 space group operations
 (whereof  2 operations were pure point group operations)
 out of a pool of 16 trial point group operations.


The static configuration has the point symmetry C_1h.


Analysis of symmetry for dynamics (positions and initial velocities):
=====================================================================
 Subroutine PRICEL returns:
 Original cell was already a primitive cell.
 

 Routine SETGRP: Setting up the symmetry group for a 
 simple tetragonal supercell.


 Subroutine GETGRP returns: Found  2 space group operations
 (whereof  2 operations were pure point group operations)
 out of a pool of 16 trial point group operations.


The dynamic configuration has the point symmetry C_1h.


Analysis of constrained symmetry for selective dynamics:
=====================================================================
 Subroutine PRICEL returns:
 Original cell was already a primitive cell.
 

 Routine SETGRP: Setting up the symmetry group for a 
 simple tetragonal supercell.


 Subroutine GETGRP returns: Found  2 space group operations
 (whereof  2 operations were pure point group operations)
 out of a pool of 16 trial point group operations.


The constrained configuration has the point symmetry C_1h.


 Subroutine INISYM returns: Found  2 space group operations
 (whereof  2 operations are pure point group operations),
 and found     1 'primitive' translations


----------------------------------------------------------------------------------------

                                     Primitive cell                                     

  volume of cell :     934.3618

  direct lattice vectors                    reciprocal lattice vectors
     5.147737367  0.000000000  0.000000000     0.194260105  0.000000000  0.000000000
     0.000000000  5.147737367  0.000000000     0.000000000  0.194260105  0.000000000
     0.000000000  0.000000000 35.260000000     0.000000000  0.000000000  0.028360749

  length of vectors
     5.147737367  5.147737367 35.260000000     0.194260105  0.194260105  0.028360749

  position of ions in fractional coordinates (direct lattice)
     0.250000000  0.250000000  0.997050482
     0.750000000  0.250000000  0.997050482
     0.250000000  0.750000000  0.997050482
     0.750000000  0.750000000  0.997050482
     0.000000000  0.000000000  0.048667045
     0.500000000  0.000000000  0.048667045
     0.000000000  0.500000000  0.048667045
     0.500000000  0.500000000  0.048667045
     0.250000000  0.250000000  0.100283607
     0.750000000  0.250000000  0.100283607
     0.250000000  0.750000000  0.100283607
     0.750000000  0.750000000  0.100283607
     0.000000000  0.000000000  0.151900170
     0.500000000  0.000000000  0.151900170
     0.000000000  0.500000000  0.151900170
     0.500000000  0.500000000  0.151900170
     0.254558441  0.254558441  0.202949518

  ion indices of the primitive-cell ions
   primitive index   ion index
                 1           1
                 2           2
                 3           3
                 4           4
                 5           5
                 6           6
                 7           7
                 8           8
                 9           9
                10          10
                11          11
                12          12
                13          13
                14          14
                15          15
                16          16
                17          17

----------------------------------------------------------------------------------------

 
 
 KPOINTS: K-Points                                

Automatic generation of k-mesh.
Space group operators:
 irot       det(A)        alpha          n_x          n_y          n_z        tau_x        tau_y        tau_z
    1     1.000000     0.000000     1.000000     0.000000     0.000000     0.000000     0.000000     0.000000
    2    -1.000000   180.000000     0.707107    -0.707107     0.000000     0.000000     0.000000     0.000000
 
 Subroutine IBZKPT returns following result:
 ===========================================
 
 Found      6 irreducible k-points:
 
 Following reciprocal coordinates:
            Coordinates               Weight
  0.125000  0.125000  0.000000      2.000000
 -0.125000  0.125000  0.000000      2.000000
  0.375000  0.125000  0.000000      4.000000
 -0.125000  0.375000  0.000000      4.000000
  0.375000  0.375000  0.000000      2.000000
 -0.375000  0.375000  0.000000      2.000000
 
 Following cartesian coordinates:
            Coordinates               Weight
  0.024283  0.024283  0.000000      2.000000
 -0.024283  0.024283  0.000000      2.000000
  0.072848  0.024283  0.000000      4.000000
 -0.024283  0.072848  0.000000      4.000000
  0.072848  0.072848  0.000000      2.000000
 -0.072848  0.072848  0.000000      2.000000
 


--------------------------------------------------------------------------------------------------------




 Dimension of arrays:
   k-points           NKPTS =      6   k-points in BZ     NKDIM =      6   number of bands    NBANDS=    112
   number of dos      NEDOS =    301   number of ions     NIONS =     17
   non local maximal  LDIM  =      6   non local SUM 2l+1 LMDIM =     18
   total plane-waves  NPLWV = 290304
   max r-space proj   IRMAX =   5811   max aug-charges    IRDMAX= 122398
   dimension x,y,z NGX =    36 NGY =   36 NGZ =  224
   dimension x,y,z NGXF=    72 NGYF=   72 NGZF=  448
   support grid    NGXF=   144 NGYF=  144 NGZF=  896
   ions per type =              16   1
   NGX,Y,Z   is equivalent  to a cutoff of  11.63, 11.63, 10.56 a.u.
   NGXF,Y,Z  is equivalent  to a cutoff of  23.25, 23.25, 21.12 a.u.

 SYSTEM =  unknown system                          
 POSCAR =  Cu Ag                                   

 Startparameter for this run:
   NWRITE =      2    write-flag & timer
   PREC   = accura    normal or accurate (medium, high low for compatibility)
   ISTART =      0    job   : 0-new  1-cont  2-samecut
   ICHARG =      2    charge: 1-file 2-atom 10-const
   ISPIN  =      1    spin polarized calculation?
   LNONCOLLINEAR =      F non collinear calculations
   LSORBIT =      F    spin-orbit coupling
   INIWAV =      1    electr: 0-lowe 1-rand  2-diag
   LASPH  =      F    aspherical Exc in radial PAW
   METAGGA=      F    non-selfconsistent MetaGGA calc.

 Electronic Relaxation 1
   ENCUT  =  380.0 eV  27.93 Ry    5.28 a.u.   8.18  8.18 56.04*2*pi/ulx,y,z
   ENINI  =  380.0     initial cutoff
   ENAUG  =  587.0 eV  augmentation charge cutoff
   NELM   =    400;   NELMIN=  2; NELMDL= -5     # of ELM steps 
   EDIFF  = 0.1E-06   stopping-criterion for ELM
   LREAL  =      T    real-space projection
   NLSPLINE    = F    spline interpolate recip. space projectors
   LCOMPAT=      F    compatible to vasp.4.4
   GGA_COMPAT  = T    GGA compatible to vasp.4.4-vasp.4.6
   LMAXPAW     = -100 max onsite density
   LMAXMIX     =    2 max onsite mixed and CHGCAR
   VOSKOWN=      0    Vosko Wilk Nusair interpolation
   ROPT   =   -0.00025  -0.00025
 Ionic relaxation
   EDIFFG = -.2E-02   stopping-criterion for IOM
   NSW    =    300    number of steps for IOM
   NBLOCK =      1;   KBLOCK =    300    inner block; outer block 
   IBRION =      2    ionic relax: 0-MD 1-quasi-New 2-CG
   NFREE  =      1    steps in history (QN), initial steepest desc. (CG)
   ISIF   =      2    stress and relaxation
   IWAVPR =     11    prediction:  0-non 1-charg 2-wave 3-comb
   ISYM   =      2    0-nonsym 1-usesym 2-fastsym
   LCORR  =      T    Harris-Foulkes like correction to forces

   POTIM  = 0.5000    time-step for ionic-motion
   TEIN   =    0.0    initial temperature
   TEBEG  =    0.0;   TEEND  =   0.0 temperature during run
   SMASS  =  -3.00    Nose mass-parameter (am)
   estimated Nose-frequenzy (Omega)   =  0.10E-29 period in steps = 0.13E+47 mass=  -0.606E-27a.u.
   SCALEE = 1.0000    scale energy and forces
   NPACO  =    256;   APACO  = 16.0  distance and # of slots for P.C.
   PSTRESS=    0.0 pullay stress

  Mass of Ions in am
   POMASS =  63.55107.87
  Ionic Valenz
   ZVAL   =  11.00 11.00
  Atomic Wigner-Seitz radii
   RWIGS  =  -1.00 -1.00
  virtual crystal weights 
   VCA    =   1.00  1.00
   NELECT =     187.0000    total number of electrons
   NUPDOWN=      -1.0000    fix difference up-down

 DOS related values:
   EMIN   =  10.00;   EMAX   =-10.00  energy-range for DOS
   EFERMI =   0.00
   ISMEAR =     1;   SIGMA  =   0.10  broadening in eV -4-tet -1-fermi 0-gaus

 Electronic relaxation 2 (details)
   IALGO  =     38    algorithm
   LDIAG  =      T    sub-space diagonalisation (order eigenvalues)
   LSUBROT=      F    optimize rotation matrix (better conditioning)
   TURBO    =      0    0=normal 1=particle mesh
   IRESTART =      0    0=no restart 2=restart with 2 vectors
   NREBOOT  =      0    no. of reboots
   NMIN     =      0    reboot dimension
   EREF     =   0.00    reference energy to select bands
   IMIX   =      4    mixing-type and parameters
     AMIX     =   0.40;   BMIX     =  1.00
     AMIX_MAG =   1.60;   BMIX_MAG =  1.00
     AMIN     =   0.10
     WC   =   100.;   INIMIX=   1;  MIXPRE=   1;  MAXMIX= -45

 Intra band minimization:
   WEIMIN = 0.0010     energy-eigenvalue tresh-hold
   EBREAK =  0.22E-09  absolut break condition
   DEPER  =   0.30     relativ break condition  

   TIME   =   0.40     timestep for ELM

  volume/ion in A,a.u.               =      54.96       370.90
  Fermi-wavevector in a.u.,A,eV,Ry     =   0.957599  1.809600 12.476485  0.916996
  Thomas-Fermi vector in A             =   2.086631
 
 Write flags
   LWAVE        =      F    write WAVECAR
   LDOWNSAMPLE  =      F    k-point downsampling of WAVECAR
   LCHARG       =      F    write CHGCAR
   LVTOT        =      F    write LOCPOT, total local potential
   LVHAR        =      F    write LOCPOT, Hartree potential only
   LELF         =      F    write electronic localiz. function (ELF)
   LORBIT       =      0    0 simple, 1 ext, 2 COOP (PROOUT), +10 PAW based schemes


 Dipole corrections
   LMONO  =      F    monopole corrections only (constant potential shift)
   LDIPOL =      F    correct potential (dipole corrections)
   IDIPOL =      0    1-x, 2-y, 3-z, 4-all directions 
   EPSILON=  1.0000000 bulk dielectric constant

 Exchange correlation treatment:
   GGA     =    --    GGA type
   LEXCH   =     8    internal setting for exchange type
   VOSKOWN=      0    Vosko Wilk Nusair interpolation
   LHFCALC =     F    Hartree Fock is set to
   LHFONE  =     F    Hartree Fock one center treatment
   AEXX    =    0.0000 exact exchange contribution

 Linear response parameters
   LEPSILON=     F    determine dielectric tensor
   LRPA    =     F    only Hartree local field effects (RPA)
   LNABLA  =     F    use nabla operator in PAW spheres
   LVEL    =     F    velocity operator in full k-point grid
   LINTERFAST=   F  fast interpolation
   KINTER  =     0    interpolate to denser k-point grid
   CSHIFT  =0.1000    complex shift for real part using Kramers Kronig
   OMEGAMAX=  -1.0    maximum frequency
   DEG_THRESHOLD= 0.2000000E-02 threshold for treating states as degnerate
   RTIME   =   -0.100 relaxation time in fs
  (WPLASMAI=    0.000 imaginary part of plasma frequency in eV, 0.658/RTIME)
   DFIELD  = 0.0000000 0.0000000 0.0000000 field for delta impulse in time
 
 Orbital magnetization related:
   ORBITALMAG=     F  switch on orbital magnetization
   LCHIMAG   =     F  perturbation theory with respect to B field
   DQ        =  0.001000  dq finite difference perturbation B field
   LLRAUG    =     F  two centre corrections for induced B field



--------------------------------------------------------------------------------------------------------


 conjugate gradient relaxation of ions
   using selective dynamics as specified on POSCAR
 charge density and potential will be updated during run
 non-spin polarized calculation
 Variant of blocked Davidson
 Davidson routine will perform the subspace rotation
 perform sub-space diagonalisation
    after iterative eigenvector-optimisation
 modified Broyden-mixing scheme, WC =      100.0
 initial mixing is a Kerker type mixing with AMIX =  0.4000 and BMIX =      1.0000
 Hartree-type preconditioning will be used
 using additional bands           18
 real space projection scheme for non local part
 use partial core corrections
 calculate Harris-corrections to forces 
   (improved forces if not selfconsistent)
 use gradient corrections 
 use of overlap-Matrix (Vanderbilt PP)
 Methfessel and Paxton  Order N= 1 SIGMA  =   0.10


--------------------------------------------------------------------------------------------------------


  energy-cutoff  :      380.00
  volume of cell :      934.36
      direct lattice vectors                 reciprocal lattice vectors
     5.147737367  0.000000000  0.000000000     0.194260105  0.000000000  0.000000000
     0.000000000  5.147737367  0.000000000     0.000000000  0.194260105  0.000000000
     0.000000000  0.000000000 35.260000000     0.000000000  0.000000000  0.028360749

  length of vectors
     5.147737367  5.147737367 35.260000000     0.194260105  0.194260105  0.028360749


 
 k-points in units of 2pi/SCALE and weight: K-Points                                
   0.02428251  0.02428251  0.00000000       0.125
  -0.02428251  0.02428251  0.00000000       0.125
   0.07284754  0.02428251  0.00000000       0.250
  -0.02428251  0.07284754  0.00000000       0.250
   0.07284754  0.07284754  0.00000000       0.125
  -0.07284754  0.07284754  0.00000000       0.125
 
 k-points in reciprocal lattice and weights: K-Points                                
   0.12500000  0.12500000  0.00000000       0.125
  -0.12500000  0.12500000  0.00000000       0.125
   0.37500000  0.12500000  0.00000000       0.250
  -0.12500000  0.37500000  0.00000000       0.250
   0.37500000  0.37500000  0.00000000       0.125
  -0.37500000  0.37500000  0.00000000       0.125
 
 position of ions in fractional coordinates (direct lattice) 
   0.25000000  0.25000000  0.99705048
   0.75000000  0.25000000  0.99705048
   0.25000000  0.75000000  0.99705048
   0.75000000  0.75000000  0.99705048
   0.00000000  0.00000000  0.04866704
   0.50000000  0.00000000  0.04866704
   0.00000000  0.50000000  0.04866704
   0.50000000  0.50000000  0.04866704
   0.25000000  0.25000000  0.10028361
   0.75000000  0.25000000  0.10028361
   0.25000000  0.75000000  0.10028361
   0.75000000  0.75000000  0.10028361
   0.00000000  0.00000000  0.15190017
   0.50000000  0.00000000  0.15190017
   0.00000000  0.50000000  0.15190017
   0.50000000  0.50000000  0.15190017
   0.25455844  0.25455844  0.20294952
 
 position of ions in cartesian coordinates  (Angst):
   1.28693434  1.28693434 35.15600000
   3.86080303  1.28693434 35.15600000
   1.28693434  3.86080303 35.15600000
   3.86080303  3.86080303 35.15600000
   0.00000000  0.00000000  1.71600000
   2.57386868  0.00000000  1.71600000
   0.00000000  2.57386868  1.71600000
   2.57386868  2.57386868  1.71600000
   1.28693434  1.28693434  3.53600000
   3.86080303  1.28693434  3.53600000
   1.28693434  3.86080303  3.53600000
   3.86080303  3.86080303  3.53600000
   0.00000000  0.00000000  5.35600000
   2.57386868  0.00000000  5.35600000
   0.00000000  2.57386868  5.35600000
   2.57386868  2.57386868  5.35600000
   1.31040000  1.31040000  7.15600000
 


--------------------------------------------------------------------------------------------------------


 k-point   1 :   0.1250 0.1250 0.0000  plane waves:   15739
 k-point   2 :  -0.1250 0.1250 0.0000  plane waves:   15739
 k-point   3 :   0.3750 0.1250 0.0000  plane waves:   15695
 k-point   4 :  -0.1250 0.3750 0.0000  plane waves:   15695
 k-point   5 :   0.3750 0.3750 0.0000  plane waves:   15772
 k-point   6 :  -0.3750 0.3750 0.0000  plane waves:   15772

 maximum and minimum number of plane-waves per node :     15772    15695

 maximum number of plane-waves:     15772
 maximum index in each direction: 
   IXMAX=    8   IYMAX=    8   IZMAX=   56
   IXMIN=   -8   IYMIN=   -8   IZMIN=  -56


 serial   3D FFT for wavefunctions
 parallel 3D FFT for charge:
    minimum data exchange during FFTs selected (reduces bandwidth)


 total amount of memory used by VASP MPI-rank0   220177. kBytes
=======================================================================

   base      :      30000. kBytes
   nonlr-proj:      16578. kBytes
   fftplans  :      85862. kBytes
   grid      :      44250. kBytes
   one-center:        264. kBytes
   wavefun   :      43223. kBytes
 
     INWAV:  cpu time    0.0001: real time    0.0001
 Broyden mixing: mesh for mixing (old mesh)
   NGX = 17   NGY = 17   NGZ =113
  (NGX  = 72   NGY  = 72   NGZ  =448)
  gives a total of  32657 points

 initial charge density was supplied:
 charge density of overlapping atoms calculated
 number of electron     187.0000000 magnetization 
 keeping initial charge density in first step


--------------------------------------------------------------------------------------------------------


 Maximum index for non-local projection operator         5601
 Maximum index for augmentation-charges        29597 (set IRDMAX)


--------------------------------------------------------------------------------------------------------


 First call to EWALD:  gamma=   0.181
 Maximum number of real-space cells 5x 5x 1
 Maximum number of reciprocal cells 2x 2x 9

    FEWALD:  cpu time    0.0028: real time    0.0258


--------------------------------------- Iteration      1(   1)  ---------------------------------------


    POTLOK:  cpu time    0.2683: real time    0.3291
    SETDIJ:  cpu time    0.1902: real time    0.2719
     EDDAV:  cpu time    7.0591: real time    7.5122
       DOS:  cpu time    0.0015: real time    0.0879
    --------------------------------------------
      LOOP:  cpu time    7.5190: real time    8.2012

 eigenvalue-minimisations  :  1344
 total energy-change (2. order) : 0.1506383E+04  (-0.6292815E+04)
 number of electron     187.0000000 magnetization 
 augmentation part      187.0000000 magnetization 

 Free energy of the ion-electron system (eV)
  ---------------------------------------------------
  alpha Z        PSCENC =       228.37091057
  Ewald energy   TEWEN  =    195470.59566937
  -Hartree energ DENC   =   -217387.22032717
  -exchange      EXHF   =         0.00000000
  -V(xc)+E(xc)   XCENC  =       716.39916112
  PAW double counting   =     20654.76870738   -22302.12474825
  entropy T*S    EENTRO =        -0.00740570
  eigenvalues    EBANDS =       833.12236908
  atomic energy  EATOM  =     23292.47908388
  Solvation  Ediel_sol  =         0.00000000
  ---------------------------------------------------
  free energy    TOTEN  =      1506.38342029 eV

  energy without entropy =     1506.39082599  energy(sigma->0) =     1506.38588885


--------------------------------------------------------------------------------------------------------




--------------------------------------- Iteration      1(   2)  ---------------------------------------


     EDDAV:  cpu time    7.0477: real time    7.0609
       DOS:  cpu time    0.0008: real time    0.0008
    --------------------------------------------
      LOOP:  cpu time    7.0485: real time    7.0617

 eigenvalue-minimisations  :  1344
 total energy-change (2. order) :-0.1431697E+04  (-0.1377678E+04)
 number of electron     187.0000000 magnetization 
 augmentation part      187.0000000 magnetization 

 Free energy of the ion-electron system (eV)
  ---------------------------------------------------
  alpha Z        PSCENC =       228.37091057
  Ewald energy   TEWEN  =    195470.59566937
  -Hartree energ DENC   =   -217387.22032717
  -exchange      EXHF   =         0.00000000
  -V(xc)+E(xc)   XCENC  =       716.39916112
  PAW double counting   =     20654.76870738   -22302.12474825
  entropy T*S    EENTRO =        -0.00400512
  eigenvalues    EBANDS =      -598.57781595
  atomic energy  EATOM  =     23292.47908388
  Solvation  Ediel_sol  =         0.00000000
  ---------------------------------------------------
  free energy    TOTEN  =        74.68663584 eV

  energy without entropy =       74.69064096  energy(sigma->0) =       74.68797088


--------------------------------------------------------------------------------------------------------




--------------------------------------- Iteration      1(   3)  ---------------------------------------


     EDDAV:  cpu time    7.6675: real time    7.6673
       DOS:  cpu time    0.0008: real time    0.0008
    --------------------------------------------
      LOOP:  cpu time    7.6683: real time    7.6681

 eigenvalue-minimisations  :  1504
 total energy-change (2. order) :-0.1353765E+03  (-0.1226143E+03)
 number of electron     187.0000000 magnetization 
 augmentation part      187.0000000 magnetization 

 Free energy of the ion-electron system (eV)
  ---------------------------------------------------
  alpha Z        PSCENC =       228.37091057
  Ewald energy   TEWEN  =    195470.59566937
  -Hartree energ DENC   =   -217387.22032717
  -exchange      EXHF   =         0.00000000
  -V(xc)+E(xc)   XCENC  =       716.39916112
  PAW double counting   =     20654.76870738   -22302.12474825
  entropy T*S    EENTRO =        -0.00126988
  eigenvalues    EBANDS =      -733.95704608
  atomic energy  EATOM  =     23292.47908388
  Solvation  Ediel_sol  =         0.00000000
  ---------------------------------------------------
  free energy    TOTEN  =       -60.68985906 eV

  energy without entropy =      -60.68858917  energy(sigma->0) =      -60.68943576


--------------------------------------------------------------------------------------------------------




--------------------------------------- Iteration      1(   4)  ---------------------------------------


     EDDAV:  cpu time    8.3442: real time    8.3438
       DOS:  cpu time    0.0008: real time    0.0008
    --------------------------------------------
      LOOP:  cpu time    8.3450: real time    8.3446

 eigenvalue-minimisations  :  1680
 total energy-change (2. order) :-0.8959987E+01  (-0.8792577E+01)
 number of electron     187.0000000 magnetization 
 augmentation part      187.0000000 magnetization 

 Free energy of the ion-electron system (eV)
  ---------------------------------------------------
  alpha Z        PSCENC =       228.37091057
  Ewald energy   TEWEN  =    195470.59566937
  -Hartree energ DENC   =   -217387.22032717
  -exchange      EXHF   =         0.00000000
  -V(xc)+E(xc)   XCENC  =       716.39916112
  PAW double counting   =     20654.76870738   -22302.12474825
  entropy T*S    EENTRO =        -0.00468719
  eigenvalues    EBANDS =      -742.91361625
  atomic energy  EATOM  =     23292.47908388
  Solvation  Ediel_sol  =         0.00000000
  ---------------------------------------------------
  free energy    TOTEN  =       -69.64984654 eV

  energy without entropy =      -69.64515935  energy(sigma->0) =      -69.64828414


--------------------------------------------------------------------------------------------------------




--------------------------------------- Iteration      1(   5)  ---------------------------------------


     EDDAV:  cpu time    8.1293: real time    8.1290
       DOS:  cpu time    0.0008: real time    0.0008
    CHARGE:  cpu time    0.7405: real time    0.8808
    MIXING:  cpu time    0.0074: real time    0.0074
    --------------------------------------------
      LOOP:  cpu time    8.8779: real time    9.0180

 eigenvalue-minimisations  :  1624
 total energy-change (2. order) :-0.2337619E+00  (-0.2332939E+00)
 number of electron     187.0000016 magnetization 
 augmentation part      109.8199521 magnetization 

 Broyden mixing:
  rms(total) = 0.28585E+01    rms(broyden)= 0.28584E+01
  rms(prec ) = 0.29271E+01
  weight for this iteration     100.00

 Free energy of the ion-electron system (eV)
  ---------------------------------------------------
  alpha Z        PSCENC =       228.37091057
  Ewald energy   TEWEN  =    195470.59566937
  -Hartree energ DENC   =   -217387.22032717
  -exchange      EXHF   =         0.00000000
  -V(xc)+E(xc)   XCENC  =       716.39916112
  PAW double counting   =     20654.76870738   -22302.12474825
  entropy T*S    EENTRO =        -0.00487370
  eigenvalues    EBANDS =      -743.14719165
  atomic energy  EATOM  =     23292.47908388
  Solvation  Ediel_sol  =         0.00000000
  ---------------------------------------------------
  free energy    TOTEN  =       -69.88360845 eV

  energy without entropy =      -69.87873475  energy(sigma->0) =      -69.88198388


--------------------------------------------------------------------------------------------------------




--------------------------------------- Iteration      1(   6)  ---------------------------------------


    POTLOK:  cpu time    0.2484: real time    0.2560
    SETDIJ:  cpu time    0.1876: real time    0.1894
     EDDAV:  cpu time    7.6163: real time    7.6158
       DOS:  cpu time    0.0008: real time    0.0008
    CHARGE:  cpu time    0.7166: real time    0.7189
    MIXING:  cpu time    0.0092: real time    0.0092
    --------------------------------------------
      LOOP:  cpu time    8.7789: real time    8.7901

 eigenvalue-minimisations  :  1488
 total energy-change (2. order) : 0.6545067E+01  (-0.1547983E+02)
 number of electron     187.0000018 magnetization 
 augmentation part      122.4138198 magnetization 

 Broyden mixing:
  rms(total) = 0.15719E+01    rms(broyden)= 0.15715E+01
  rms(prec ) = 0.16199E+01
  weight for this iteration     100.00

 eigenvalues of (default mixing * dielectric matrix)
  average eigenvalue GAMMA=   0.6495
  0.6495

 Free energy of the ion-electron system (eV)
  ---------------------------------------------------
  alpha Z        PSCENC =       228.37091057
  Ewald energy   TEWEN  =    195470.59566937
  -Hartree energ DENC   =   -216982.37225619
  -exchange      EXHF   =         0.00000000
  -V(xc)+E(xc)   XCENC  =       695.37768810
  PAW double counting   =     20868.18617827   -22432.34120752
  entropy T*S    EENTRO =        -0.01254434
  eigenvalues    EBANDS =     -1203.62206324
  atomic energy  EATOM  =     23292.47908388
  Solvation  Ediel_sol  =         0.00000000
  ---------------------------------------------------
  free energy    TOTEN  =       -63.33854111 eV

  energy without entropy =      -63.32599677  energy(sigma->0) =      -63.33435966


--------------------------------------------------------------------------------------------------------




--------------------------------------- Iteration      1(   7)  ---------------------------------------


    POTLOK:  cpu time    0.2447: real time    0.2527
    SETDIJ:  cpu time    0.1879: real time    0.1896
     EDDAV:  cpu time    8.1482: real time    8.1478
       DOS:  cpu time    0.0008: real time    0.0008
    CHARGE:  cpu time    0.7239: real time    0.7261
    MIXING:  cpu time    0.0093: real time    0.0094
    --------------------------------------------
      LOOP:  cpu time    9.3157: real time    9.3263

 eigenvalue-minimisations  :  1624
 total energy-change (2. order) : 0.6138245E+01  (-0.3075817E+01)
 number of electron     187.0000018 magnetization 
 augmentation part      118.3921732 magnetization 

 Broyden mixing:
  rms(total) = 0.44492E+00    rms(broyden)= 0.44484E+00
  rms(prec ) = 0.45963E+00
  weight for this iteration     100.00

 eigenvalues of (default mixing * dielectric matrix)
  average eigenvalue GAMMA=   0.5309
  0.6366  0.4251

 Free energy of the ion-electron system (eV)
  ---------------------------------------------------
  alpha Z        PSCENC =       228.37091057
  Ewald energy   TEWEN  =    195470.59566937
  -Hartree energ DENC   =   -217213.06895544
  -exchange      EXHF   =         0.00000000
  -V(xc)+E(xc)   XCENC  =       702.11969120
  PAW double counting   =     21251.97381808   -22887.90482920
  entropy T*S    EENTRO =        -0.01355378
  eigenvalues    EBANDS =      -901.75213065
  atomic energy  EATOM  =     23292.47908388
  Solvation  Ediel_sol  =         0.00000000
  ---------------------------------------------------
  free energy    TOTEN  =       -57.20029596 eV

  energy without entropy =      -57.18674218  energy(sigma->0) =      -57.19577803


--------------------------------------------------------------------------------------------------------




--------------------------------------- Iteration      1(   8)  ---------------------------------------


    POTLOK:  cpu time    0.2453: real time    0.2527
    SETDIJ:  cpu time    0.1879: real time    0.1898
     EDDAV:  cpu time    8.4286: real time    8.4281
       DOS:  cpu time    0.0008: real time    0.0008
    CHARGE:  cpu time    0.7244: real time    0.7266
    MIXING:  cpu time    0.0097: real time    0.0097
    --------------------------------------------
      LOOP:  cpu time    9.5957: real time    9.6077

 eigenvalue-minimisations  :  1696
 total energy-change (2. order) :-0.1512756E+00  (-0.6050502E+00)
 number of electron     187.0000018 magnetization 
 augmentation part      117.7816848 magnetization 

 Broyden mixing:
  rms(total) = 0.27459E+00    rms(broyden)= 0.27456E+00
  rms(prec ) = 0.28147E+00
  weight for this iteration     100.00

 eigenvalues of (default mixing * dielectric matrix)
  average eigenvalue GAMMA=   0.6969
  1.1195  0.6017  0.3696

 Free energy of the ion-electron system (eV)
  ---------------------------------------------------
  alpha Z        PSCENC =       228.37091057
  Ewald energy   TEWEN  =    195470.59566937
  -Hartree energ DENC   =   -217221.89064270
  -exchange      EXHF   =         0.00000000
  -V(xc)+E(xc)   XCENC  =       702.33532792
  PAW double counting   =     21389.47932502   -23037.36920572
  entropy T*S    EENTRO =        -0.01659416
  eigenvalues    EBANDS =      -881.33544574
  atomic energy  EATOM  =     23292.47908388
  Solvation  Ediel_sol  =         0.00000000
  ---------------------------------------------------
  free energy    TOTEN  =       -57.35157158 eV

  energy without entropy =      -57.33497742  energy(sigma->0) =      -57.34604019


--------------------------------------------------------------------------------------------------------




--------------------------------------- Iteration      1(   9)  ---------------------------------------


    POTLOK:  cpu time    0.2468: real time    0.2542
    SETDIJ:  cpu time    0.1881: real time    0.1900
     EDDAV:  cpu time    8.4886: real time    8.4881
       DOS:  cpu time    0.0010: real time    0.0008
    CHARGE:  cpu time    0.7237: real time    0.7262
    MIXING:  cpu time    0.0095: real time    0.0095
    --------------------------------------------
      LOOP:  cpu time    9.6577: real time    9.6687

 eigenvalue-minimisations  :  1712
 total energy-change (2. order) :-0.2638118E-01  (-0.1596835E+00)
 number of electron     187.0000018 magnetization 
 augmentation part      117.3367683 magnetization 

 Broyden mixing:
  rms(total) = 0.24128E+00    rms(broyden)= 0.24127E+00
  rms(prec ) = 0.24966E+00
  weight for this iteration     100.00

 eigenvalues of (default mixing * dielectric matrix)
  average eigenvalue GAMMA=   0.8049
  1.6687  0.5926  0.5926  0.3658

 Free energy of the ion-electron system (eV)
  ---------------------------------------------------
  alpha Z        PSCENC =       228.37091057
  Ewald energy   TEWEN  =    195470.59566937
  -Hartree energ DENC   =   -217234.82172099
  -exchange      EXHF   =         0.00000000
  -V(xc)+E(xc)   XCENC  =       702.00196883
  PAW double counting   =     21603.76288945   -23267.58674082
  entropy T*S    EENTRO =        -0.01600375
  eigenvalues    EBANDS =      -852.16400930
  atomic energy  EATOM  =     23292.47908388
  Solvation  Ediel_sol  =         0.00000000
  ---------------------------------------------------
  free energy    TOTEN  =       -57.37795275 eV

  energy without entropy =      -57.36194900  energy(sigma->0) =      -57.37261817


--------------------------------------------------------------------------------------------------------




--------------------------------------- Iteration      1(  10)  ---------------------------------------


    POTLOK:  cpu time    0.2460: real time    0.2536
    SETDIJ:  cpu time    0.1876: real time    0.1895
     EDDAV:  cpu time    8.0554: real time    8.0550
       DOS:  cpu time    0.0008: real time    0.0008
    CHARGE:  cpu time    0.7241: real time    0.7262
    MIXING:  cpu time    0.0099: real time    0.0098
    --------------------------------------------
      LOOP:  cpu time    9.2238: real time    9.2349

 eigenvalue-minimisations  :  1600
 total energy-change (2. order) : 0.2907540E-01  (-0.6510324E-01)
 number of electron     187.0000018 magnetization 
 augmentation part      117.4527406 magnetization 

 Broyden mixing:
  rms(total) = 0.16785E+00    rms(broyden)= 0.16784E+00
  rms(prec ) = 0.18924E+00
  weight for this iteration     100.00

 eigenvalues of (default mixing * dielectric matrix)
  average eigenvalue GAMMA=   0.8715
  2.1201  0.7368  0.7368  0.4247  0.3389

 Free energy of the ion-electron system (eV)
  ---------------------------------------------------
  alpha Z        PSCENC =       228.37091057
  Ewald energy   TEWEN  =    195470.59566937
  -Hartree energ DENC   =   -217227.67854555
  -exchange      EXHF   =         0.00000000
  -V(xc)+E(xc)   XCENC  =       701.24002004
  PAW double counting   =     21721.25706595   -23391.22840616
  entropy T*S    EENTRO =        -0.01635738
  eigenvalues    EBANDS =      -852.36831808
  atomic energy  EATOM  =     23292.47908388
  Solvation  Ediel_sol  =         0.00000000
  ---------------------------------------------------
  free energy    TOTEN  =       -57.34887735 eV

  energy without entropy =      -57.33251997  energy(sigma->0) =      -57.34342489


--------------------------------------------------------------------------------------------------------




--------------------------------------- Iteration      1(  11)  ---------------------------------------


    POTLOK:  cpu time    0.2479: real time    0.2556
    SETDIJ:  cpu time    0.1876: real time    0.1893
     EDDAV:  cpu time    9.2248: real time    9.2242
       DOS:  cpu time    0.0008: real time    0.0008
    CHARGE:  cpu time    0.7265: real time    0.7287
    MIXING:  cpu time    0.0100: real time    0.0100
    --------------------------------------------
      LOOP:  cpu time   10.3976: real time   10.4087

 eigenvalue-minimisations  :  1888
 total energy-change (2. order) : 0.5382146E-01  (-0.5786735E-01)
 number of electron     187.0000018 magnetization 
 augmentation part      117.6213749 magnetization 

 Broyden mixing:
  rms(total) = 0.60613E-01    rms(broyden)= 0.60581E-01
  rms(prec ) = 0.81044E-01
  weight for this iteration     100.00

 eigenvalues of (default mixing * dielectric matrix)
  average eigenvalue GAMMA=   0.8762
  2.2716  0.8012  0.8012  0.6871  0.3853  0.3105

 Free energy of the ion-electron system (eV)
  ---------------------------------------------------
  alpha Z        PSCENC =       228.37091057
  Ewald energy   TEWEN  =    195470.59566937
  -Hartree energ DENC   =   -217221.88263270
  -exchange      EXHF   =         0.00000000
  -V(xc)+E(xc)   XCENC  =       700.54138165
  PAW double counting   =     21808.56933391   -23482.21262654
  entropy T*S    EENTRO =        -0.01736349
  eigenvalues    EBANDS =      -853.73881254
  atomic energy  EATOM  =     23292.47908388
  Solvation  Ediel_sol  =         0.00000000
  ---------------------------------------------------
  free energy    TOTEN  =       -57.29505589 eV

  energy without entropy =      -57.27769240  energy(sigma->0) =      -57.28926806


--------------------------------------------------------------------------------------------------------




--------------------------------------- Iteration      1(  12)  ---------------------------------------


    POTLOK:  cpu time    0.2466: real time    0.2543
    SETDIJ:  cpu time    0.1876: real time    0.1894
     EDDAV:  cpu time    9.5386: real time    9.5381
       DOS:  cpu time    0.0008: real time    0.0008
    CHARGE:  cpu time    0.7226: real time    0.7248
    MIXING:  cpu time    0.0102: real time    0.0102
    --------------------------------------------
      LOOP:  cpu time   10.7064: real time   10.7177

 eigenvalue-minimisations  :  1968
 total energy-change (2. order) : 0.1006560E-01  (-0.1887868E-01)
 number of electron     187.0000018 magnetization 
 augmentation part      117.7562944 magnetization 

 Broyden mixing:
  rms(total) = 0.25658E-01    rms(broyden)= 0.25647E-01
  rms(prec ) = 0.28234E-01
  weight for this iteration     100.00

 eigenvalues of (default mixing * dielectric matrix)
  average eigenvalue GAMMA=   0.8533
  2.1627  0.9196  0.9196  0.7278  0.5730  0.3834  0.2867

 Free energy of the ion-electron system (eV)
  ---------------------------------------------------
  alpha Z        PSCENC =       228.37091057
  Ewald energy   TEWEN  =    195470.59566937
  -Hartree energ DENC   =   -217221.42229192
  -exchange      EXHF   =         0.00000000
  -V(xc)+E(xc)   XCENC  =       700.31643532
  PAW double counting   =     21833.99216192   -23508.38671341
  entropy T*S    EENTRO =        -0.01781743
  eigenvalues    EBANDS =      -853.21242858
  atomic energy  EATOM  =     23292.47908388
  Solvation  Ediel_sol  =         0.00000000
  ---------------------------------------------------
  free energy    TOTEN  =       -57.28499029 eV

  energy without entropy =      -57.26717286  energy(sigma->0) =      -57.27905115


--------------------------------------------------------------------------------------------------------




--------------------------------------- Iteration      1(  13)  ---------------------------------------


    POTLOK:  cpu time    0.2466: real time    0.2545
    SETDIJ:  cpu time    0.1875: real time    0.1893
     EDDAV:  cpu time    7.7268: real time    7.7263
       DOS:  cpu time    0.0008: real time    0.0008
    CHARGE:  cpu time    0.7279: real time    0.7303
    MIXING:  cpu time    0.0104: real time    0.0104
    --------------------------------------------
      LOOP:  cpu time    8.9000: real time    8.9116

 eigenvalue-minimisations  :  1504
 total energy-change (2. order) :-0.3614279E-02  (-0.5993160E-02)
 number of electron     187.0000018 magnetization 
 augmentation part      117.7427791 magnetization 

 Broyden mixing:
  rms(total) = 0.22003E-01    rms(broyden)= 0.22000E-01
  rms(prec ) = 0.23189E-01
  weight for this iteration     100.00

 eigenvalues of (default mixing * dielectric matrix)
  average eigenvalue GAMMA=   0.9216
  2.0527  2.0527  0.8078  0.8078  0.5421  0.4530  0.2888  0.3678

 Free energy of the ion-electron system (eV)
  ---------------------------------------------------
  alpha Z        PSCENC =       228.37091057
  Ewald energy   TEWEN  =    195470.59566937
  -Hartree energ DENC   =   -217228.98564249
  -exchange      EXHF   =         0.00000000
  -V(xc)+E(xc)   XCENC  =       700.41254615
  PAW double counting   =     21837.97976466   -23513.06342258
  entropy T*S    EENTRO =        -0.01790136
  eigenvalues    EBANDS =      -845.05961277
  atomic energy  EATOM  =     23292.47908388
  Solvation  Ediel_sol  =         0.00000000
  ---------------------------------------------------
  free energy    TOTEN  =       -57.28860457 eV

  energy without entropy =      -57.27070321  energy(sigma->0) =      -57.28263745


--------------------------------------------------------------------------------------------------------




--------------------------------------- Iteration      1(  14)  ---------------------------------------


    POTLOK:  cpu time    0.2494: real time    0.2568
    SETDIJ:  cpu time    0.1878: real time    0.1896
     EDDAV:  cpu time    8.1903: real time    8.1898
       DOS:  cpu time    0.0008: real time    0.0008
    CHARGE:  cpu time    0.7272: real time    0.7294
    MIXING:  cpu time    0.0103: real time    0.0103
    --------------------------------------------
      LOOP:  cpu time    9.3667: real time    9.3766

 eigenvalue-minimisations  :  1624
 total energy-change (2. order) :-0.6337622E-04  (-0.1244848E-02)
 number of electron     187.0000018 magnetization 
 augmentation part      117.7015421 magnetization 

 Broyden mixing:
  rms(total) = 0.24032E-01    rms(broyden)= 0.24030E-01
  rms(prec ) = 0.24916E-01
  weight for this iteration     100.00

 eigenvalues of (default mixing * dielectric matrix)
  average eigenvalue GAMMA=   0.9492
  2.4830  2.0804  0.8128  0.8128  0.6694  0.6694  0.2906  0.3797  0.3444

 Free energy of the ion-electron system (eV)
  ---------------------------------------------------
  alpha Z        PSCENC =       228.37091057
  Ewald energy   TEWEN  =    195470.59566937
  -Hartree energ DENC   =   -217236.82153710
  -exchange      EXHF   =         0.00000000
  -V(xc)+E(xc)   XCENC  =       700.48587754
  PAW double counting   =     21842.87322868   -23518.81633981
  entropy T*S    EENTRO =        -0.01765476
  eigenvalues    EBANDS =      -836.43790631
  atomic energy  EATOM  =     23292.47908388
  Solvation  Ediel_sol  =         0.00000000
  ---------------------------------------------------
  free energy    TOTEN  =       -57.28866794 eV

  energy without entropy =      -57.27101318  energy(sigma->0) =      -57.28278302


--------------------------------------------------------------------------------------------------------




--------------------------------------- Iteration      1(  15)  ---------------------------------------


    POTLOK:  cpu time    0.2484: real time    0.2560
    SETDIJ:  cpu time    0.1876: real time    0.1894
     EDDAV:  cpu time    7.5981: real time    7.5977
       DOS:  cpu time    0.0008: real time    0.0008
    CHARGE:  cpu time    0.7274: real time    0.7294
    MIXING:  cpu time    0.0105: real time    0.0105
    --------------------------------------------
      LOOP:  cpu time    8.7718: real time    8.7838

 eigenvalue-minimisations  :  1472
 total energy-change (2. order) : 0.9872744E-03  (-0.4226780E-03)
 number of electron     187.0000018 magnetization 
 augmentation part      117.7399794 magnetization 

 Broyden mixing:
  rms(total) = 0.64767E-02    rms(broyden)= 0.64753E-02
  rms(prec ) = 0.74917E-02
  weight for this iteration     100.00

 eigenvalues of (default mixing * dielectric matrix)
  average eigenvalue GAMMA=   0.9842
  2.5992  1.5147  1.5147  1.0084  0.7761  0.7761  0.6325  0.2897  0.3835  0.3476

 Free energy of the ion-electron system (eV)
  ---------------------------------------------------
  alpha Z        PSCENC =       228.37091057
  Ewald energy   TEWEN  =    195470.59566937
  -Hartree energ DENC   =   -217238.00821099
  -exchange      EXHF   =         0.00000000
  -V(xc)+E(xc)   XCENC  =       700.39920747
  PAW double counting   =     21847.70022456   -23523.83490400
  entropy T*S    EENTRO =        -0.01772222
  eigenvalues    EBANDS =      -834.97193929
  atomic energy  EATOM  =     23292.47908388
  Solvation  Ediel_sol  =         0.00000000
  ---------------------------------------------------
  free energy    TOTEN  =       -57.28768067 eV

  energy without entropy =      -57.26995844  energy(sigma->0) =      -57.28177326


--------------------------------------------------------------------------------------------------------




--------------------------------------- Iteration      1(  16)  ---------------------------------------


    POTLOK:  cpu time    0.2483: real time    0.2563
    SETDIJ:  cpu time    0.1883: real time    0.1901
     EDDAV:  cpu time    9.5500: real time    9.5494
       DOS:  cpu time    0.0008: real time    0.0008
    CHARGE:  cpu time    0.7292: real time    0.7305
    MIXING:  cpu time    0.0108: real time    0.0108
    --------------------------------------------
      LOOP:  cpu time   10.7275: real time   10.7380

 eigenvalue-minimisations  :  1984
 total energy-change (2. order) :-0.1641387E-03  (-0.2058350E-03)
 number of electron     187.0000018 magnetization 
 augmentation part      117.7638340 magnetization 

 Broyden mixing:
  rms(total) = 0.11178E-01    rms(broyden)= 0.11177E-01
  rms(prec ) = 0.11766E-01
  weight for this iteration     100.00

 eigenvalues of (default mixing * dielectric matrix)
  average eigenvalue GAMMA=   0.9920
  2.3846  2.3846  1.4982  0.8408  0.8408  0.8224  0.6182  0.4991  0.2898  0.3867
  0.3474

 Free energy of the ion-electron system (eV)
  ---------------------------------------------------
  alpha Z        PSCENC =       228.37091057
  Ewald energy   TEWEN  =    195470.59566937
  -Hartree energ DENC   =   -217240.28027298
  -exchange      EXHF   =         0.00000000
  -V(xc)+E(xc)   XCENC  =       700.36333224
  PAW double counting   =     21846.93897780   -23523.04921399
  entropy T*S    EENTRO =        -0.01776972
  eigenvalues    EBANDS =      -832.68856197
  atomic energy  EATOM  =     23292.47908388
  Solvation  Ediel_sol  =         0.00000000
  ---------------------------------------------------
  free energy    TOTEN  =       -57.28784481 eV

  energy without entropy =      -57.27007509  energy(sigma->0) =      -57.28192157


--------------------------------------------------------------------------------------------------------




--------------------------------------- Iteration      1(  17)  ---------------------------------------


    POTLOK:  cpu time    0.2488: real time    0.2565
    SETDIJ:  cpu time    0.1877: real time    0.1894
     EDDAV:  cpu time    8.1444: real time    8.1439
       DOS:  cpu time    0.0008: real time    0.0008
    CHARGE:  cpu time    0.7284: real time    0.7307
    MIXING:  cpu time    0.0108: real time    0.0108
    --------------------------------------------
      LOOP:  cpu time    9.3209: real time    9.3321

 eigenvalue-minimisations  :  1624
 total energy-change (2. order) : 0.8073065E-04  (-0.1968095E-03)
 number of electron     187.0000018 magnetization 
 augmentation part      117.7282373 magnetization 

 Broyden mixing:
  rms(total) = 0.53919E-02    rms(broyden)= 0.53905E-02
  rms(prec ) = 0.57735E-02
  weight for this iteration     100.00

 eigenvalues of (default mixing * dielectric matrix)
  average eigenvalue GAMMA=   1.0052
  2.6756  2.6756  1.5007  0.8993  0.8993  0.7240  0.6142  0.5259  0.5259  0.2898
  0.3850  0.3476

 Free energy of the ion-electron system (eV)
  ---------------------------------------------------
  alpha Z        PSCENC =       228.37091057
  Ewald energy   TEWEN  =    195470.59566937
  -Hartree energ DENC   =   -217245.94278139
  -exchange      EXHF   =         0.00000000
  -V(xc)+E(xc)   XCENC  =       700.44468249
  PAW double counting   =     21840.74118382   -23516.98579813
  entropy T*S    EENTRO =        -0.01767988
  eigenvalues    EBANDS =      -826.97303481
  atomic energy  EATOM  =     23292.47908388
  Solvation  Ediel_sol  =         0.00000000
  ---------------------------------------------------
  free energy    TOTEN  =       -57.28776408 eV

  energy without entropy =      -57.27008420  energy(sigma->0) =      -57.28187079


--------------------------------------------------------------------------------------------------------




--------------------------------------- Iteration      1(  18)  ---------------------------------------


    POTLOK:  cpu time    0.2488: real time    0.2568
    SETDIJ:  cpu time    0.1877: real time    0.1894
     EDDAV:  cpu time    8.3017: real time    8.3012
       DOS:  cpu time    0.0008: real time    0.0008
    CHARGE:  cpu time    0.7282: real time    0.7302
    MIXING:  cpu time    0.0110: real time    0.0110
    --------------------------------------------
      LOOP:  cpu time    9.4782: real time    9.4895

 eigenvalue-minimisations  :  1664
 total energy-change (2. order) :-0.1489896E-03  (-0.4356729E-04)
 number of electron     187.0000018 magnetization 
 augmentation part      117.7195932 magnetization 

 Broyden mixing:
  rms(total) = 0.74656E-02    rms(broyden)= 0.74649E-02
  rms(prec ) = 0.77612E-02
  weight for this iteration     100.00

 eigenvalues of (default mixing * dielectric matrix)
  average eigenvalue GAMMA=   1.0191
  2.9080  2.0643  2.0643  0.8773  0.8773  0.8631  0.8631  0.6779  0.6779  0.2898
  0.3834  0.3460  0.3554

 Free energy of the ion-electron system (eV)
  ---------------------------------------------------
  alpha Z        PSCENC =       228.37091057
  Ewald energy   TEWEN  =    195470.59566937
  -Hartree energ DENC   =   -217248.06345528
  -exchange      EXHF   =         0.00000000
  -V(xc)+E(xc)   XCENC  =       700.45679757
  PAW double counting   =     21839.11064721   -23515.37105998
  entropy T*S    EENTRO =        -0.01770482
  eigenvalues    EBANDS =      -824.84880158
  atomic energy  EATOM  =     23292.47908388
  Solvation  Ediel_sol  =         0.00000000
  ---------------------------------------------------
  free energy    TOTEN  =       -57.28791307 eV

  energy without entropy =      -57.27020825  energy(sigma->0) =      -57.28201146


--------------------------------------------------------------------------------------------------------




--------------------------------------- Iteration      1(  19)  ---------------------------------------


    POTLOK:  cpu time    0.2493: real time    0.2571
    SETDIJ:  cpu time    0.1877: real time    0.1895
     EDDAV:  cpu time    7.4038: real time    7.4033
       DOS:  cpu time    0.0008: real time    0.0008
    CHARGE:  cpu time    0.7295: real time    0.7319
    MIXING:  cpu time    0.0118: real time    0.0118
    --------------------------------------------
      LOOP:  cpu time    8.5830: real time    8.5945

 eigenvalue-minimisations  :  1432
 total energy-change (2. order) :-0.7956033E-04  (-0.5728953E-04)
 number of electron     187.0000018 magnetization 
 augmentation part      117.7416350 magnetization 

 Broyden mixing:
  rms(total) = 0.19399E-02    rms(broyden)= 0.19375E-02
  rms(prec ) = 0.22355E-02
  weight for this iteration     100.00

 eigenvalues of (default mixing * dielectric matrix)
  average eigenvalue GAMMA=   1.0890
  3.2797  2.5445  2.1630  1.1085  0.9691  0.9691  0.8028  0.8028  0.6185  0.6185
  0.2897  0.3855  0.3455  0.3487

 Free energy of the ion-electron system (eV)
  ---------------------------------------------------
  alpha Z        PSCENC =       228.37091057
  Ewald energy   TEWEN  =    195470.59566937
  -Hartree energ DENC   =   -217248.27839527
  -exchange      EXHF   =         0.00000000
  -V(xc)+E(xc)   XCENC  =       700.41309657
  PAW double counting   =     21840.03889349   -23516.18249547
  entropy T*S    EENTRO =        -0.01774337
  eigenvalues    EBANDS =      -824.70701239
  atomic energy  EATOM  =     23292.47908388
  Solvation  Ediel_sol  =         0.00000000
  ---------------------------------------------------
  free energy    TOTEN  =       -57.28799263 eV

  energy without entropy =      -57.27024926  energy(sigma->0) =      -57.28207817


--------------------------------------------------------------------------------------------------------




--------------------------------------- Iteration      1(  20)  ---------------------------------------


    POTLOK:  cpu time    0.2516: real time    0.2589
    SETDIJ:  cpu time    0.1875: real time    0.1894
     EDDAV:  cpu time    8.1080: real time    8.1075
       DOS:  cpu time    0.0008: real time    0.0008
    CHARGE:  cpu time    0.7280: real time    0.7301
    MIXING:  cpu time    0.0114: real time    0.0114
    --------------------------------------------
      LOOP:  cpu time    9.2873: real time    9.2981

 eigenvalue-minimisations  :  1616
 total energy-change (2. order) :-0.2880935E-03  (-0.1102294E-04)
 number of electron     187.0000018 magnetization 
 augmentation part      117.7434285 magnetization 

 Broyden mixing:
  rms(total) = 0.19661E-02    rms(broyden)= 0.19643E-02
  rms(prec ) = 0.21037E-02
  weight for this iteration     100.00

 eigenvalues of (default mixing * dielectric matrix)
  average eigenvalue GAMMA=   1.1505
  4.5020  2.7788  1.7454  1.6313  0.9512  0.9512  0.8289  0.8289  0.6353  0.6353
  0.2898  0.3868  0.4050  0.3466  0.3410

 Free energy of the ion-electron system (eV)
  ---------------------------------------------------
  alpha Z        PSCENC =       228.37091057
  Ewald energy   TEWEN  =    195470.59566937
  -Hartree energ DENC   =   -217250.34357830
  -exchange      EXHF   =         0.00000000
  -V(xc)+E(xc)   XCENC  =       700.41688951
  PAW double counting   =     21838.46508423   -23514.55688740
  entropy T*S    EENTRO =        -0.01773018
  eigenvalues    EBANDS =      -822.69772239
  atomic energy  EATOM  =     23292.47908388
  Solvation  Ediel_sol  =         0.00000000
  ---------------------------------------------------
  free energy    TOTEN  =       -57.28828072 eV

  energy without entropy =      -57.27055054  energy(sigma->0) =      -57.28237066


--------------------------------------------------------------------------------------------------------




--------------------------------------- Iteration      1(  21)  ---------------------------------------


    POTLOK:  cpu time    0.2508: real time    0.2586
    SETDIJ:  cpu time    0.1880: real time    0.1898
     EDDAV:  cpu time    8.2816: real time    8.2811
       DOS:  cpu time    0.0008: real time    0.0008
    CHARGE:  cpu time    0.7267: real time    0.7288
    MIXING:  cpu time    0.0115: real time    0.0115
    --------------------------------------------
      LOOP:  cpu time    9.4594: real time    9.4705

 eigenvalue-minimisations  :  1664
 total energy-change (2. order) :-0.1486086E-03  (-0.3882590E-05)
 number of electron     187.0000018 magnetization 
 augmentation part      117.7400899 magnetization 

 Broyden mixing:
  rms(total) = 0.83523E-03    rms(broyden)= 0.83125E-03
  rms(prec ) = 0.95192E-03
  weight for this iteration     100.00

 eigenvalues of (default mixing * dielectric matrix)
  average eigenvalue GAMMA=   1.2011
  4.8020  2.6843  1.9525  1.9525  1.2786  0.9117  0.9117  0.8293  0.8293  0.6418
  0.6418  0.2897  0.3854  0.4160  0.3479  0.3426

 Free energy of the ion-electron system (eV)
  ---------------------------------------------------
  alpha Z        PSCENC =       228.37091057
  Ewald energy   TEWEN  =    195470.59566937
  -Hartree energ DENC   =   -217251.59036554
  -exchange      EXHF   =         0.00000000
  -V(xc)+E(xc)   XCENC  =       700.42709054
  PAW double counting   =     21837.79962171   -23513.90503368
  entropy T*S    EENTRO =        -0.01772102
  eigenvalues    EBANDS =      -821.44768516
  atomic energy  EATOM  =     23292.47908388
  Solvation  Ediel_sol  =         0.00000000
  ---------------------------------------------------
  free energy    TOTEN  =       -57.28842933 eV

  energy without entropy =      -57.27070831  energy(sigma->0) =      -57.28252232


--------------------------------------------------------------------------------------------------------




--------------------------------------- Iteration      1(  22)  ---------------------------------------


    POTLOK:  cpu time    0.2518: real time    0.2598
    SETDIJ:  cpu time    0.1874: real time    0.1891
     EDDAV:  cpu time    7.8508: real time    7.8504
       DOS:  cpu time    0.0008: real time    0.0008
    CHARGE:  cpu time    0.7266: real time    0.7288
    MIXING:  cpu time    0.0120: real time    0.0120
    --------------------------------------------
      LOOP:  cpu time    9.0294: real time    9.0408

 eigenvalue-minimisations  :  1552
 total energy-change (2. order) :-0.1757462E-03  (-0.3161247E-05)
 number of electron     187.0000018 magnetization 
 augmentation part      117.7367863 magnetization 

 Broyden mixing:
  rms(total) = 0.10693E-02    rms(broyden)= 0.10662E-02
  rms(prec ) = 0.11264E-02
  weight for this iteration     100.00

 eigenvalues of (default mixing * dielectric matrix)
  average eigenvalue GAMMA=   1.2945
  5.5381  3.1746  2.5180  1.6608  1.6608  0.9586  0.9586  0.8215  0.8215  0.7982
  0.6549  0.6549  0.2897  0.3853  0.4220  0.3474  0.3425

 Free energy of the ion-electron system (eV)
  ---------------------------------------------------
  alpha Z        PSCENC =       228.37091057
  Ewald energy   TEWEN  =    195470.59566937
  -Hartree energ DENC   =   -217252.15306612
  -exchange      EXHF   =         0.00000000
  -V(xc)+E(xc)   XCENC  =       700.43059460
  PAW double counting   =     21838.82938308   -23515.00070196
  entropy T*S    EENTRO =        -0.01770643
  eigenvalues    EBANDS =      -820.82277207
  atomic energy  EATOM  =     23292.47908388
  Solvation  Ediel_sol  =         0.00000000
  ---------------------------------------------------
  free energy    TOTEN  =       -57.28860508 eV

  energy without entropy =      -57.27089865  energy(sigma->0) =      -57.28270293


--------------------------------------------------------------------------------------------------------




--------------------------------------- Iteration      1(  23)  ---------------------------------------


    POTLOK:  cpu time    0.2538: real time    0.2644
    SETDIJ:  cpu time    0.1877: real time    0.1894
     EDDAV:  cpu time    8.4065: real time    8.4060
       DOS:  cpu time    0.0008: real time    0.0008
    CHARGE:  cpu time    0.7261: real time    0.7284
    MIXING:  cpu time    0.0123: real time    0.0123
    --------------------------------------------
      LOOP:  cpu time    9.5871: real time    9.6013

 eigenvalue-minimisations  :  1696
 total energy-change (2. order) :-0.1482510E-03  (-0.1679285E-05)
 number of electron     187.0000018 magnetization 
 augmentation part      117.7392662 magnetization 

 Broyden mixing:
  rms(total) = 0.33295E-03    rms(broyden)= 0.32301E-03
  rms(prec ) = 0.36355E-03
  weight for this iteration     100.00

 eigenvalues of (default mixing * dielectric matrix)
  average eigenvalue GAMMA=   1.2731
  5.7061  3.3952  2.5053  1.6850  1.6850  0.9648  0.9648  0.8267  0.8267  0.8455
  0.6514  0.6514  0.2897  0.3475  0.3429  0.3852  0.4208  0.4208

 Free energy of the ion-electron system (eV)
  ---------------------------------------------------
  alpha Z        PSCENC =       228.37091057
  Ewald energy   TEWEN  =    195470.59566937
  -Hartree energ DENC   =   -217252.60181114
  -exchange      EXHF   =         0.00000000
  -V(xc)+E(xc)   XCENC  =       700.42465707
  PAW double counting   =     21839.26937991   -23515.42082389
  entropy T*S    EENTRO =        -0.01771601
  eigenvalues    EBANDS =      -820.38810309
  atomic energy  EATOM  =     23292.47908388
  Solvation  Ediel_sol  =         0.00000000
  ---------------------------------------------------
  free energy    TOTEN  =       -57.28875333 eV

  energy without entropy =      -57.27103732  energy(sigma->0) =      -57.28284799


--------------------------------------------------------------------------------------------------------




--------------------------------------- Iteration      1(  24)  ---------------------------------------


    POTLOK:  cpu time    0.2531: real time    0.2608
    SETDIJ:  cpu time    0.1880: real time    0.1899
     EDDAV:  cpu time    7.9718: real time    7.9713
       DOS:  cpu time    0.0008: real time    0.0008
    CHARGE:  cpu time    0.7264: real time    0.7285
    MIXING:  cpu time    0.0128: real time    0.0128
    --------------------------------------------
      LOOP:  cpu time    9.1530: real time    9.1641

 eigenvalue-minimisations  :  1584
 total energy-change (2. order) :-0.2324750E-04  (-0.3042932E-06)
 number of electron     187.0000018 magnetization 
 augmentation part      117.7400566 magnetization 

 Broyden mixing:
  rms(total) = 0.32825E-03    rms(broyden)= 0.31820E-03
  rms(prec ) = 0.34976E-03
  weight for this iteration     100.00

 eigenvalues of (default mixing * dielectric matrix)
  average eigenvalue GAMMA=   1.3134
  5.8489  3.6146  2.3930  1.9896  1.9896  1.2071  0.9802  0.9802  0.8208  0.8208
  0.8493  0.6528  0.6528  0.2897  0.4217  0.3853  0.3474  0.3426  0.3678

 Free energy of the ion-electron system (eV)
  ---------------------------------------------------
  alpha Z        PSCENC =       228.37091057
  Ewald energy   TEWEN  =    195470.59566937
  -Hartree energ DENC   =   -217252.69924875
  -exchange      EXHF   =         0.00000000
  -V(xc)+E(xc)   XCENC  =       700.42359201
  PAW double counting   =     21839.23197263   -23515.37462495
  entropy T*S    EENTRO =        -0.01771875
  eigenvalues    EBANDS =      -820.29841258
  atomic energy  EATOM  =     23292.47908388
  Solvation  Ediel_sol  =         0.00000000
  ---------------------------------------------------
  free energy    TOTEN  =       -57.28877657 eV

  energy without entropy =      -57.27105782  energy(sigma->0) =      -57.28287032


--------------------------------------------------------------------------------------------------------




--------------------------------------- Iteration      1(  25)  ---------------------------------------


    POTLOK:  cpu time    0.2541: real time    0.2618
    SETDIJ:  cpu time    0.1877: real time    0.1895
     EDDAV:  cpu time    8.1003: real time    8.0998
       DOS:  cpu time    0.0010: real time    0.0009
    CHARGE:  cpu time    0.7283: real time    0.7297
    MIXING:  cpu time    0.0135: real time    0.0135
    --------------------------------------------
      LOOP:  cpu time    9.2849: real time    9.2952

 eigenvalue-minimisations  :  1616
 total energy-change (2. order) :-0.4306297E-04  (-0.1943718E-06)
 number of electron     187.0000018 magnetization 
 augmentation part      117.7403797 magnetization 

 Broyden mixing:
  rms(total) = 0.37522E-03    rms(broyden)= 0.36647E-03
  rms(prec ) = 0.38280E-03
  weight for this iteration     100.00

 eigenvalues of (default mixing * dielectric matrix)
  average eigenvalue GAMMA=   1.3452
  6.3260  3.8757  2.5847  2.1086  1.8310  1.5273  0.9792  0.9792  0.8280  0.8280
  0.7922  0.7922  0.6491  0.6491  0.2897  0.4247  0.3852  0.3425  0.3475  0.3648

 Free energy of the ion-electron system (eV)
  ---------------------------------------------------
  alpha Z        PSCENC =       228.37091057
  Ewald energy   TEWEN  =    195470.59566937
  -Hartree energ DENC   =   -217252.93443368
  -exchange      EXHF   =         0.00000000
  -V(xc)+E(xc)   XCENC  =       700.42365838
  PAW double counting   =     21839.05457647   -23515.18799779
  entropy T*S    EENTRO =        -0.01772103
  eigenvalues    EBANDS =      -820.07256581
  atomic energy  EATOM  =     23292.47908388
  Solvation  Ediel_sol  =         0.00000000
  ---------------------------------------------------
  free energy    TOTEN  =       -57.28881964 eV

  energy without entropy =      -57.27109861  energy(sigma->0) =      -57.28291263


--------------------------------------------------------------------------------------------------------




--------------------------------------- Iteration      1(  26)  ---------------------------------------


    POTLOK:  cpu time    0.2552: real time    0.2629
    SETDIJ:  cpu time    0.1876: real time    0.1895
     EDDAV:  cpu time    7.5538: real time    7.5533
       DOS:  cpu time    0.0008: real time    0.0008
    CHARGE:  cpu time    0.7259: real time    0.7282
    MIXING:  cpu time    0.0135: real time    0.0135
    --------------------------------------------
[...]
     38      -4.5645      2.00000
     39      -4.5572      2.00000
     40      -4.4575      2.00000
     41      -4.4179      2.00000
     42      -4.3736      2.00000
     43      -4.3459      2.00000
     44      -4.3434      2.00000
     45      -4.2091      2.00000
     46      -4.1562      2.00000
     47      -4.1082      2.00000
     48      -4.0999      2.00000
     49      -4.0424      2.00000
     50      -4.0154      2.00000
     51      -4.0043      2.00000
     52      -3.9737      2.00000
     53      -3.9545      2.00000
     54      -3.9485      2.00000
     55      -3.9170      2.00000
     56      -3.8879      2.00000
     57      -3.8737      2.00000
     58      -3.8488      2.00000
     59      -3.8086      2.00000
     60      -3.7899      2.00000
     61      -3.7811      2.00000
     62      -3.7613      2.00000
     63      -3.6892      2.00000
     64      -3.6625      2.00000
     65      -3.6365      2.00000
     66      -3.6281      2.00000
     67      -3.6134      2.00000
     68      -3.5857      2.00000
     69      -3.5625      2.00000
     70      -3.5084      2.00000
     71      -3.4829      2.00000
     72      -3.4812      2.00000
     73      -3.4576      2.00000
     74      -3.4523      2.00000
     75      -3.4293      2.00000
     76      -3.4174      2.00000
     77      -3.4075      2.00000
     78      -3.3483      2.00000
     79      -3.3391      2.00000
     80      -3.3317      2.00000
     81      -3.3146      2.00000
     82      -3.2831      2.00000
     83      -3.2727      2.00000
     84      -3.2669      2.00000
     85      -3.1222      2.00000
     86      -3.0568      2.00000
     87      -3.0557      2.00000
     88      -3.0395      2.00000
     89      -3.0306      2.00000
     90      -2.9891      2.00000
     91      -2.7547      2.00000
     92      -2.6734      2.00000
     93      -2.3351      2.00000
     94      -1.8528      2.00002
     95      -1.4604      0.24983
     96      -1.2892     -0.00734
     97      -0.6748     -0.00000
     98      -0.0694     -0.00000
     99       0.5481     -0.00000
    100       0.8336     -0.00000
    101       1.3470      0.00000
    102       2.0242      0.00000
    103       2.5711      0.00000
    104       2.8579      0.00000
    105       3.2712      0.00000
    106       3.5318      0.00000
    107       3.5442      0.00000
    108       3.6287      0.00000
    109       4.0297      0.00000
    110       4.1933      0.00000
    111       4.3521      0.00000
    112       4.4240      0.00000

 k-point     6 :      -0.3750    0.3750    0.0000
  band No.  band energies     occupation 
      1      -8.6218      2.00000
      2      -7.4520      2.00000
      3      -7.4184      2.00000
      4      -7.2337      2.00000
      5      -6.6064      2.00000
      6      -6.4453      2.00000
      7      -6.3980      2.00000
      8      -6.0492      2.00000
      9      -5.9582      2.00000
     10      -5.9149      2.00000
     11      -5.7219      2.00000
     12      -5.5462      2.00000
     13      -5.5421      2.00000
     14      -5.5067      2.00000
     15      -5.4791      2.00000
     16      -5.4129      2.00000
     17      -5.3931      2.00000
     18      -5.3920      2.00000
     19      -5.3762      2.00000
     20      -5.3089      2.00000
     21      -5.2752      2.00000
     22      -5.2698      2.00000
     23      -5.2248      2.00000
     24      -5.0579      2.00000
     25      -5.0402      2.00000
     26      -4.9924      2.00000
     27      -4.9838      2.00000
     28      -4.9753      2.00000
     29      -4.8912      2.00000
     30      -4.8652      2.00000
     31      -4.8415      2.00000
     32      -4.7826      2.00000
     33      -4.7680      2.00000
     34      -4.7288      2.00000
     35      -4.6890      2.00000
     36      -4.6765      2.00000
     37      -4.6110      2.00000
     38      -4.5645      2.00000
     39      -4.5572      2.00000
     40      -4.4575      2.00000
     41      -4.4179      2.00000
     42      -4.3736      2.00000
     43      -4.3459      2.00000
     44      -4.3434      2.00000
     45      -4.2091      2.00000
     46      -4.1562      2.00000
     47      -4.1082      2.00000
     48      -4.0998      2.00000
     49      -4.0424      2.00000
     50      -4.0154      2.00000
     51      -4.0043      2.00000
     52      -3.9737      2.00000
     53      -3.9545      2.00000
     54      -3.9485      2.00000
     55      -3.9170      2.00000
     56      -3.8879      2.00000
     57      -3.8737      2.00000
     58      -3.8488      2.00000
     59      -3.8086      2.00000
     60      -3.7899      2.00000
     61      -3.7811      2.00000
     62      -3.7613      2.00000
     63      -3.6892      2.00000
     64      -3.6625      2.00000
     65      -3.6365      2.00000
     66      -3.6281      2.00000
     67      -3.6134      2.00000
     68      -3.5857      2.00000
     69      -3.5625      2.00000
     70      -3.5084      2.00000
     71      -3.4829      2.00000
     72      -3.4812      2.00000
     73      -3.4576      2.00000
     74      -3.4523      2.00000
     75      -3.4293      2.00000
     76      -3.4174      2.00000
     77      -3.4075      2.00000
     78      -3.3483      2.00000
     79      -3.3391      2.00000
     80      -3.3317      2.00000
     81      -3.3146      2.00000
     82      -3.2831      2.00000
     83      -3.2727      2.00000
     84      -3.2669      2.00000
     85      -3.1222      2.00000
     86      -3.0568      2.00000
     87      -3.0557      2.00000
     88      -3.0395      2.00000
     89      -3.0306      2.00000
     90      -2.9891      2.00000
     91      -2.7547      2.00000
     92      -2.6734      2.00000
     93      -2.3351      2.00000
     94      -1.8528      2.00002
     95      -1.4604      0.24980
     96      -1.2892     -0.00734
     97      -0.6748     -0.00000
     98      -0.0694     -0.00000
     99       0.5481     -0.00000
    100       0.8336     -0.00000
    101       1.3470      0.00000
    102       2.0242      0.00000
    103       2.5711      0.00000
    104       2.8579      0.00000
    105       3.2712      0.00000
    106       3.5318      0.00000
    107       3.5442      0.00000
    108       3.6287      0.00000
    109       4.0297      0.00000
    110       4.1933      0.00000
    111       4.3521      0.00000
    112       4.4240      0.00000


--------------------------------------------------------------------------------------------------------


 soft charge-density along one line, spin component           1
         0         1         2         3         4         5         6         7         8         9
 total charge-density along one line
 
 pseudopotential strength for first ion, spin component:           1
 -9.193   0.000  -0.000   0.000   0.000   0.025  -0.000   0.000
  0.000  -9.189   0.000   0.000  -0.000  -0.000   0.020  -0.000
 -0.000   0.000  -9.175   0.000   0.000   0.000  -0.000   0.009
  0.000   0.000   0.000  -9.189   0.000  -0.000  -0.000  -0.000
  0.000  -0.000   0.000   0.000  -9.215  -0.000   0.000  -0.000
  0.025  -0.000   0.000  -0.000  -0.000   6.977   0.000  -0.000
 -0.000   0.020  -0.000  -0.000   0.000   0.000   6.981   0.000
  0.000  -0.000   0.009  -0.000  -0.000  -0.000   0.000   6.990
 -0.000  -0.000  -0.000   0.020  -0.000   0.000   0.000   0.000
 -0.000   0.000  -0.000  -0.000   0.042   0.000  -0.000   0.000
 -0.000  -0.000  -0.005  -0.000   0.000   0.000   0.000   0.002
 -0.000  -0.000  -0.010  -0.000   0.000   0.000   0.000   0.004
 -0.000  -0.013   0.000   0.000   0.000   0.000   0.011  -0.000
  0.000  -0.000  -0.015  -0.000   0.000  -0.000   0.000   0.011
 -0.000   0.000   0.000  -0.013  -0.000   0.000  -0.000  -0.000
 -0.000  -0.015   0.000   0.000   0.000   0.000   0.013  -0.000
  0.000  -0.000  -0.017  -0.000  -0.000  -0.000   0.000   0.013
 -0.000   0.000   0.000  -0.015  -0.000   0.000  -0.000  -0.000
 total augmentation occupancy for first ion, spin component:           1
  1.930   0.000  -0.000   0.000   0.000  -0.033  -0.000  -0.000  -0.000   0.000  -0.000  -0.000   0.000   0.000   0.000  -0.000
  0.000   1.926   0.000  -0.000  -0.000  -0.000  -0.024  -0.000  -0.000  -0.000  -0.000   0.000   0.029  -0.000  -0.000  -0.016
 -0.000   0.000   1.940   0.000  -0.000   0.000  -0.000  -0.033  -0.000   0.000   0.000   0.012   0.000   0.042   0.000   0.000
  0.000  -0.000   0.000   1.926   0.000  -0.000  -0.000  -0.000  -0.024   0.000  -0.000   0.000  -0.000  -0.000   0.029   0.000
  0.000  -0.000  -0.000   0.000   1.909   0.000  -0.000   0.000   0.000  -0.005  -0.000  -0.000  -0.000  -0.000   0.000   0.000
 -0.033  -0.000   0.000  -0.000   0.000   0.011   0.000   0.000   0.000   0.000   0.000   0.000  -0.000  -0.000  -0.000   0.000
 -0.000  -0.024  -0.000  -0.000  -0.000   0.000   0.009   0.000  -0.000  -0.000  -0.000  -0.000   0.022   0.000  -0.000  -0.001
 -0.000  -0.000  -0.033  -0.000   0.000   0.000   0.000   0.010   0.000  -0.000  -0.030   0.001  -0.000   0.017  -0.000  -0.000
 -0.000  -0.000  -0.000  -0.024   0.000   0.000  -0.000   0.000   0.009   0.000  -0.000  -0.000  -0.000   0.000   0.022  -0.000
  0.000  -0.000   0.000   0.000  -0.005   0.000  -0.000  -0.000   0.000   0.012   0.000  -0.000   0.000  -0.000  -0.000  -0.000
 -0.000  -0.000   0.000  -0.000  -0.000   0.000  -0.000  -0.030  -0.000   0.000   1.620  -0.124   0.000   0.157   0.000  -0.000
 -0.000   0.000   0.012   0.000  -0.000   0.000  -0.000   0.001  -0.000  -0.000  -0.124   0.015   0.000  -0.024   0.000   0.000
  0.000   0.029   0.000  -0.000  -0.000  -0.000   0.022  -0.000  -0.000   0.000   0.000   0.000   0.176  -0.000  -0.000  -0.011
  0.000  -0.000   0.042  -0.000  -0.000  -0.000   0.000   0.017   0.000  -0.000   0.157  -0.024  -0.000   0.107  -0.000  -0.000
  0.000  -0.000   0.000   0.029   0.000  -0.000  -0.000  -0.000   0.022  -0.000   0.000   0.000  -0.000  -0.000   0.176   0.000
 -0.000  -0.016   0.000   0.000   0.000   0.000  -0.001  -0.000  -0.000  -0.000  -0.000   0.000  -0.011  -0.000   0.000   0.001
 -0.000  -0.000  -0.019  -0.000   0.000   0.000  -0.000  -0.001  -0.000   0.000  -0.022   0.002  -0.000  -0.008  -0.000   0.000
 -0.000   0.000   0.000  -0.016  -0.000   0.000  -0.000  -0.000  -0.001   0.000  -0.000   0.000   0.000  -0.000  -0.011   0.000


------------------------ aborting loop because EDIFF is reached ----------------------------------------


    CHARGE:  cpu time    0.7243: real time    0.7266
    FORLOC:  cpu time    0.0463: real time    0.0463
    FORNL :  cpu time    3.2896: real time    3.3005
    STRESS:  cpu time   10.0766: real time   10.1113
    FORCOR:  cpu time    0.2946: real time    0.3001
    FORHAR:  cpu time    0.0940: real time    0.0955
    MIXING:  cpu time    0.0076: real time    0.0076
    OFIELD:  cpu time    0.0001: real time    0.0001

  FORCE on cell =-STRESS in cart. coord.  units (eV):
  Direction    XX          YY          ZZ          XY          YZ          ZX
  --------------------------------------------------------------------------------------
  Alpha Z   228.37091   228.37091   228.37091
  Ewald  208012.27373208012.27373************    -0.00148    -0.66744    -0.66744
  Hartree213817.24501213817.24501************    -0.00095    -0.35885    -0.35885
  E(xc)   -1085.24403 -1085.24403 -1086.57625    -0.00000    -0.00046    -0.00046
  Local  ************************427609.97967     0.00242     1.00720     1.00720
  n-local  -363.76881  -363.76881  -367.81801     0.00071    -0.01052    -0.01100
  augment  1604.22262  1604.22262  1606.62573    -0.00000     0.00946     0.00946
  Kinetic  1569.79301  1569.79300  1573.50795     0.00000     0.00480     0.00499
  Fock        0.00000     0.00000     0.00000     0.00000     0.00000     0.00000
  -------------------------------------------------------------------------------------
  Total      -5.03437    -5.03437    -2.78811     0.00001    -0.01594    -0.01594
  in kB      -8.63259    -8.63259    -4.78085     0.00002    -0.02734    -0.02734
  external pressure =       -7.35 kB  Pullay stress =        0.00 kB


 VOLUME and BASIS-vectors are now :
 -----------------------------------------------------------------------------
  energy-cutoff  :      380.00
  volume of cell :      934.36
      direct lattice vectors                 reciprocal lattice vectors
     5.147737367  0.000000000  0.000000000     0.194260105  0.000000000  0.000000000
     0.000000000  5.147737367  0.000000000     0.000000000  0.194260105  0.000000000
     0.000000000  0.000000000 35.260000000     0.000000000  0.000000000  0.028360749

  length of vectors
     5.147737367  5.147737367 35.260000000     0.194260105  0.194260105  0.028360749


 FORCES acting on ions
    electron-ion (+dipol)            ewald-force                    non-local-force                 convergence-correction
 -----------------------------------------------------------------------------------------------
   0.113E-03 0.113E-03 0.412E+04   0.158E-03 0.158E-03 -.412E+04   -.272E-03 -.272E-03 -.359E+01   0.290E-04 0.290E-04 0.543E-03
   0.153E-02 -.254E-03 0.412E+04   -.189E-02 -.564E-04 -.412E+04   0.395E-03 0.290E-03 -.382E+01   -.333E-04 0.261E-04 0.524E-03
   -.254E-03 0.153E-02 0.412E+04   -.564E-04 -.189E-02 -.412E+04   0.290E-03 0.395E-03 -.382E+01   0.261E-04 -.333E-04 0.524E-03
   0.199E-02 0.199E-02 0.412E+04   -.173E-02 -.173E-02 -.412E+04   -.221E-03 -.221E-03 -.358E+01   -.317E-04 -.317E-04 0.530E-03
   0.403E+01 0.403E+01 0.160E+04   -.416E+01 -.416E+01 -.160E+04   0.917E-01 0.917E-01 -.450E+00   0.312E-05 0.312E-05 0.205E-02
   -.414E+01 0.403E+01 0.160E+04   0.427E+01 -.416E+01 -.160E+04   -.882E-01 0.919E-01 -.450E+00   -.107E-03 -.348E-05 0.206E-02
   0.403E+01 -.414E+01 0.160E+04   -.416E+01 0.427E+01 -.160E+04   0.919E-01 -.882E-01 -.450E+00   -.348E-05 -.107E-03 0.206E-02
   -.414E+01 -.414E+01 0.160E+04   0.427E+01 0.427E+01 -.160E+04   -.884E-01 -.884E-01 -.450E+00   -.101E-03 -.101E-03 0.207E-02
   -.179E-01 -.179E-01 -.958E+03   0.189E-01 0.189E-01 0.957E+03   -.206E-02 -.206E-02 0.123E+01   0.907E-03 0.907E-03 0.365E-02
   0.443E-01 -.332E-01 -.987E+03   -.433E-01 0.341E-01 0.988E+03   -.191E-02 -.214E-02 -.671E+00   0.446E-03 0.111E-02 0.215E-02
   -.332E-01 0.443E-01 -.987E+03   0.341E-01 -.433E-01 0.988E+03   -.214E-02 -.191E-02 -.671E+00   0.111E-02 0.446E-03 0.215E-02
   0.644E-01 0.644E-01 -.102E+04   -.636E-01 -.636E-01 0.102E+04   -.174E-02 -.174E-02 -.626E+00   0.355E-03 0.355E-03 0.251E-02
   0.640E+02 0.640E+02 -.353E+04   -.642E+02 -.642E+02 0.352E+04   0.214E+00 0.214E+00 0.255E+01   0.209E-02 0.209E-02 -.641E-03
   -.639E+02 0.641E+02 -.353E+04   0.642E+02 -.643E+02 0.352E+04   -.220E+00 0.212E+00 0.255E+01   0.543E-03 0.186E-02 0.578E-03
   0.641E+02 -.639E+02 -.353E+04   -.643E+02 0.642E+02 0.352E+04   0.212E+00 -.220E+00 0.255E+01   0.186E-02 0.543E-03 0.578E-03
   -.640E+02 -.640E+02 -.353E+04   0.642E+02 0.642E+02 0.352E+04   -.218E+00 -.218E+00 0.254E+01   0.658E-03 0.658E-03 0.168E-02
   0.824E-03 0.824E-03 -.484E+04   -.385E-03 -.385E-03 0.483E+04   0.108E-03 0.108E-03 0.760E+01   -.628E-03 -.628E-03 0.507E-03
 -----------------------------------------------------------------------------------------------
   0.468E-02 0.468E-02 -.461E+00   -.104E-12 -.304E-13 -.273E-11   -.121E-01 -.121E-01 0.430E+00   0.713E-02 0.713E-02 0.235E-01
 
 
 POSITION                                       TOTAL-FORCE (eV/Angst)
 -----------------------------------------------------------------------------------
      1.28693      1.28693     35.15600         0.000048      0.000048      0.252793
      3.86080      1.28693     35.15600         0.000020      0.000026      0.259849
      1.28693      3.86080     35.15600         0.000026      0.000020      0.259849
      3.86080      3.86080     35.15600         0.000027      0.000027      0.319968
      0.00000      0.00000      1.71600        -0.039226     -0.039226     -0.272963
      2.57387      0.00000      1.71600         0.041845     -0.039133     -0.272927
      0.00000      2.57387      1.71600        -0.039133      0.041845     -0.272927
      2.57387      2.57387      1.71600         0.041751      0.041751     -0.272888
      1.28762      1.28762      3.50893        -0.000107     -0.000107     -0.001200
      3.86156      1.28771      3.52332        -0.000463     -0.000149     -0.000562
      1.28771      3.86156      3.52332        -0.000149     -0.000463     -0.000562
      3.86162      3.86162      3.54733        -0.000557     -0.000557     -0.000478
     -0.00776     -0.00776      5.30287        -0.000728     -0.000728      0.000275
      2.58422     -0.00765      5.30293        -0.001262     -0.001318      0.000358
     -0.00765      2.58422      5.30293        -0.001318     -0.001262      0.000358
      2.58410      2.58410      5.30297        -0.000713     -0.000713      0.000525
      1.28795      1.28795      7.17637        -0.000061     -0.000061      0.000529
 -----------------------------------------------------------------------------------
    total drift:                               -0.000336     -0.000336     -0.007363


--------------------------------------------------------------------------------------------------------



  FREE ENERGIE OF THE ION-ELECTRON SYSTEM (eV)
  ---------------------------------------------------
  free  energy   TOTEN  =       -57.33408712 eV

  energy  without entropy=      -57.31762033  energy(sigma->0) =      -57.32859819
 
 d Force = 0.4522002E-05[ 0.293E-05, 0.612E-05]  d Energy = 0.4064943E-05 0.457E-06
 d Force = 0.2262914E+01[ 0.226E+01, 0.226E+01]  d Ewald  = 0.2262914E+01-0.291E-09


--------------------------------------------------------------------------------------------------------


    POTLOK:  cpu time    0.4395: real time    0.4488


--------------------------------------------------------------------------------------------------------


 stress matrix after NEB project (eV)
     -5.03437      0.00001     -0.01594
      0.00001     -5.03437     -0.01594
     -0.01594     -0.01594     -2.78811
  FORCES: max atom, RMS     0.001860    0.000876
  FORCE total and by dimension    0.003612    0.001318
  Stress total and by dimension    7.646201    5.034373
 Conjugate gradient step on ions:
 trial-energy change:   -0.000004  1 .order   -0.000005   -0.000006   -0.000003
  (g-gl).g = 0.197E-05      g.g   = 0.203E-05  gl.gl    = 0.362E-05
 g(Force)  = 0.203E-05   g(Stress)= 0.000E+00 ortho     = 0.122E-06
 gamma     =   0.54410
 trial     =   2.91557
 opt step  =   5.59531  (harmonic =   5.59531) maximal distance =0.00079892
 next E    =   -57.334089   (d E  =  -0.00001)


--------------------------------------------------------------------------------------------------------


  
 reached required accuracy - stopping structural energy minimisation
     LOOP+:  cpu time   75.4214: real time   75.5671
    4ORBIT:  cpu time    0.0001: real time    0.0001

 total amount of memory used by VASP MPI-rank0   220177. kBytes
=======================================================================

   base      :      30000. kBytes
   nonlr-proj:      16578. kBytes
   fftplans  :      85862. kBytes
   grid      :      44250. kBytes
   one-center:        264. kBytes
   wavefun   :      43223. kBytes
 
  
  
 General timing and accounting informations for this job:
 ========================================================
  
                  Total CPU time used (sec):     2821.166
                            User time (sec):     2800.054
                          System time (sec):       21.111
                         Elapsed time (sec):     2830.583
  
                   Maximum memory used (kb):      394728.
                   Average memory used (kb):           0.
  
                          Minor page faults:      1629595
                          Major page faults:          342
                 Voluntary context switches:       124598
