  17  17   0   0
  0.5496246E+02  0.5147737E-09  0.5147737E-09  0.3526000E-08  0.0000000E+00
  1.000000000000000E-004
  CAR 
 unknown system                          
      5.37080064    -10.99238307  301     -1.50553751      1.00000000
    -10.992  0.0000E+00  0.0000E+00
    -10.938  0.0000E+00  0.0000E+00
    -10.883  0.0000E+00  0.0000E+00
    -10.829 -0.1806E-31 -0.9849E-33
    -10.774 -0.1149E-27 -0.6270E-29
    -10.720 -0.4016E-24 -0.2191E-25
    -10.665 -0.7695E-21 -0.4199E-22
    -10.611 -0.8078E-18 -0.4410E-19
    -10.556 -0.4496E-15 -0.2457E-16
    -10.501 -0.1399E-12 -0.7657E-14
    -10.447 -0.2366E-10 -0.1298E-11
    -10.392 -0.2160E-08 -0.1191E-09
    -10.338 -0.1055E-06 -0.5874E-08
    -10.283 -0.2710E-05 -0.1537E-06
    -10.229 -0.3535E-04 -0.2082E-05
    -10.174 -0.2136E-03 -0.1373E-04
    -10.120 -0.3921E-03 -0.3512E-04
    -10.065  0.1210E-02  0.3088E-04
    -10.011  0.5827E-02  0.3487E-03
     -9.956  0.8020E-02  0.7861E-03
     -9.902  0.4157E-02  0.1013E-02
     -9.847  0.3070E-03  0.1030E-02
     -9.792 -0.3966E-03  0.1008E-02
     -9.738 -0.1294E-03  0.1001E-02
     -9.683 -0.1629E-04  0.1000E-02
     -9.629 -0.1170E-05  0.1000E-02
     -9.574 -0.4757E-05  0.9997E-03
     -9.520 -0.6370E-04  0.9963E-03
     -9.465 -0.4007E-03  0.9744E-03
     -9.411 -0.8030E-03  0.9306E-03
     -9.356  0.2114E-02  0.1046E-02
     -9.302  0.1120E-01  0.1657E-02
     -9.247  0.1614E-01  0.2537E-02
     -9.192  0.8793E-02  0.3017E-02
     -9.138  0.8176E-03  0.3061E-02
     -9.083 -0.8064E-03  0.3017E-02
     -9.029 -0.2796E-03  0.3002E-02
     -8.974 -0.3654E-04  0.3000E-02
     -8.920 -0.2780E-05  0.3000E-02
     -8.865 -0.9342E-05  0.2999E-02
     -8.811 -0.8741E-04  0.2995E-02
     -8.756 -0.3464E-03  0.2976E-02
     -8.702 -0.7298E-04  0.2972E-02
     -8.647  0.3009E-02  0.3136E-02
     -8.592  0.7340E-02  0.3536E-02
     -8.538  0.6435E-02  0.3887E-02
     -8.483  0.3444E-02  0.4075E-02
     -8.429  0.5785E-02  0.4391E-02
     -8.374  0.7664E-02  0.4809E-02
     -8.320  0.3831E-02  0.5018E-02
     -8.265  0.1814E-03  0.5028E-02
     -8.211 -0.5408E-03  0.4998E-02
     -8.156 -0.7692E-03  0.4956E-02
     -8.102 -0.3175E-03  0.4939E-02
     -8.047  0.5412E-02  0.5234E-02
     -7.992  0.1451E-01  0.6026E-02
     -7.938  0.1347E-01  0.6760E-02
     -7.883  0.4539E-02  0.7008E-02
     -7.829  0.5445E-02  0.7305E-02
     -7.774  0.1441E-01  0.8091E-02
     -7.720  0.1365E-01  0.8836E-02
     -7.665  0.4230E-02  0.9067E-02
     -7.611 -0.8103E-03  0.9022E-02
     -7.556 -0.1350E-02  0.8949E-02
     -7.502  0.5205E-03  0.8977E-02
     -7.447  0.8198E-02  0.9424E-02
     -7.392  0.1579E-01  0.1029E-01
     -7.338  0.1136E-01  0.1091E-01
     -7.283  0.2487E-02  0.1104E-01
     -7.229  0.2279E-02  0.1117E-01
     -7.174  0.7118E-02  0.1155E-01
     -7.120  0.6749E-02  0.1192E-01
     -7.065  0.1974E-02  0.1203E-01
     -7.011 -0.7843E-03  0.1199E-01
     -6.956 -0.9783E-03  0.1193E-01
     -6.902  0.3188E-02  0.1211E-01
     -6.847  0.1248E-01  0.1279E-01
     -6.792  0.1477E-01  0.1359E-01
     -6.738  0.6754E-02  0.1396E-01
     -6.683  0.6795E-02  0.1433E-01
     -6.629  0.2010E-01  0.1543E-01
     -6.574  0.2754E-01  0.1693E-01
     -6.520  0.1691E-01  0.1785E-01
     -6.465  0.2518E-02  0.1799E-01
     -6.411  0.1570E-02  0.1808E-01
     -6.356  0.1627E-01  0.1896E-01
     -6.302  0.3683E-01  0.2097E-01
     -6.247  0.4512E-01  0.2343E-01
     -6.193  0.3262E-01  0.2521E-01
     -6.138  0.1768E-01  0.2618E-01
     -6.083  0.2085E-01  0.2731E-01
     -6.029  0.3463E-01  0.2920E-01
     -5.974  0.4831E-01  0.3184E-01
     -5.920  0.5696E-01  0.3494E-01
     -5.865  0.4861E-01  0.3760E-01
     -5.811  0.3794E-01  0.3966E-01
     -5.756  0.4374E-01  0.4205E-01
     -5.702  0.5097E-01  0.4483E-01
     -5.647  0.5655E-01  0.4791E-01
     -5.593  0.7352E-01  0.5192E-01
     -5.538  0.9390E-01  0.5705E-01
     -5.483  0.1032E+00  0.6267E-01
     -5.429  0.1021E+00  0.6824E-01
     -5.374  0.1011E+00  0.7375E-01
     -5.320  0.1023E+00  0.7933E-01
     -5.265  0.9902E-01  0.8473E-01
     -5.211  0.8438E-01  0.8934E-01
     -5.156  0.6287E-01  0.9276E-01
     -5.102  0.4621E-01  0.9529E-01
     -5.047  0.5510E-01  0.9829E-01
     -4.993  0.8189E-01  0.1028E+00
     -4.938  0.8563E-01  0.1074E+00
     -4.883  0.8124E-01  0.1119E+00
     -4.829  0.8498E-01  0.1165E+00
     -4.774  0.6778E-01  0.1202E+00
     -4.720  0.5754E-01  0.1233E+00
     -4.665  0.8435E-01  0.1279E+00
     -4.611  0.1086E+00  0.1339E+00
     -4.556  0.1003E+00  0.1393E+00
     -4.502  0.8845E-01  0.1442E+00
     -4.447  0.9852E-01  0.1495E+00
     -4.393  0.1154E+00  0.1558E+00
     -4.338  0.1366E+00  0.1633E+00
     -4.283  0.1557E+00  0.1718E+00
     -4.229  0.1448E+00  0.1797E+00
     -4.174  0.1159E+00  0.1860E+00
     -4.120  0.9243E-01  0.1910E+00
     -4.065  0.8080E-01  0.1954E+00
     -4.011  0.9364E-01  0.2005E+00
     -3.956  0.1177E+00  0.2070E+00
     -3.902  0.1238E+00  0.2137E+00
     -3.847  0.1285E+00  0.2207E+00
     -3.793  0.1370E+00  0.2282E+00
     -3.738  0.1278E+00  0.2352E+00
     -3.683  0.1236E+00  0.2419E+00
     -3.629  0.1316E+00  0.2491E+00
     -3.574  0.1290E+00  0.2561E+00
     -3.520  0.1407E+00  0.2638E+00
     -3.465  0.1681E+00  0.2730E+00
     -3.411  0.1565E+00  0.2815E+00
     -3.356  0.1304E+00  0.2886E+00
     -3.302  0.1544E+00  0.2970E+00
     -3.247  0.1893E+00  0.3074E+00
     -3.193  0.1835E+00  0.3174E+00
     -3.138  0.1701E+00  0.3266E+00
     -3.084  0.1748E+00  0.3362E+00
     -3.029  0.1700E+00  0.3454E+00
     -2.974  0.1219E+00  0.3521E+00
     -2.920  0.5425E-01  0.3551E+00
     -2.865  0.1977E-01  0.3561E+00
     -2.811  0.1495E-01  0.3569E+00
     -2.756  0.1809E-01  0.3579E+00
     -2.702  0.1938E-01  0.3590E+00
     -2.647  0.1342E-01  0.3597E+00
     -2.593  0.8230E-02  0.3602E+00
     -2.538  0.1200E-01  0.3608E+00
     -2.484  0.1786E-01  0.3618E+00
     -2.429  0.1692E-01  0.3627E+00
     -2.374  0.1446E-01  0.3635E+00
     -2.320  0.1632E-01  0.3644E+00
     -2.265  0.2288E-01  0.3656E+00
     -2.211  0.3303E-01  0.3674E+00
     -2.156  0.3181E-01  0.3692E+00
     -2.102  0.1528E-01  0.3700E+00
     -2.047  0.1565E-02  0.3701E+00
     -1.993 -0.1757E-02  0.3700E+00
     -1.938 -0.3224E-03  0.3700E+00
     -1.884  0.3913E-02  0.3702E+00
     -1.829  0.7939E-02  0.3706E+00
     -1.774  0.5696E-02  0.3709E+00
     -1.720  0.3753E-03  0.3710E+00
     -1.665 -0.5173E-03  0.3709E+00
     -1.611  0.7172E-02  0.3713E+00
     -1.556  0.2110E-01  0.3725E+00
     -1.502  0.2993E-01  0.3741E+00
     -1.447  0.2451E-01  0.3755E+00
     -1.393  0.1353E-01  0.3762E+00
     -1.338  0.1428E-01  0.3770E+00
     -1.284  0.1930E-01  0.3780E+00
     -1.229  0.1491E-01  0.3788E+00
     -1.174  0.9369E-02  0.3793E+00
     -1.120  0.1001E-01  0.3799E+00
     -1.065  0.1106E-01  0.3805E+00
     -1.011  0.7707E-02  0.3809E+00
     -0.956  0.2272E-02  0.3810E+00
     -0.902 -0.5567E-03  0.3810E+00
     -0.847 -0.1131E-02  0.3809E+00
     -0.793  0.4669E-03  0.3810E+00
     -0.738  0.7853E-02  0.3814E+00
     -0.684  0.1514E-01  0.3822E+00
     -0.629  0.1289E-01  0.3829E+00
     -0.574  0.1178E-01  0.3836E+00
     -0.520  0.1523E-01  0.3844E+00
     -0.465  0.1018E-01  0.3850E+00
     -0.411  0.1268E-02  0.3850E+00
     -0.356 -0.1593E-02  0.3849E+00
     -0.302  0.3379E-02  0.3851E+00
     -0.247  0.1480E-01  0.3859E+00
     -0.193  0.2025E-01  0.3870E+00
     -0.138  0.1516E-01  0.3879E+00
     -0.084  0.1626E-01  0.3887E+00
     -0.029  0.2354E-01  0.3900E+00
      0.025  0.2340E-01  0.3913E+00
      0.080  0.2388E-01  0.3926E+00
      0.135  0.2521E-01  0.3940E+00
      0.189  0.1614E-01  0.3949E+00
      0.244  0.3265E-02  0.3950E+00
      0.298 -0.1229E-02  0.3950E+00
      0.353  0.4895E-02  0.3952E+00
      0.407  0.1557E-01  0.3961E+00
      0.462  0.1858E-01  0.3971E+00
      0.516  0.1231E-01  0.3978E+00
      0.571  0.4458E-02  0.3980E+00
      0.625 -0.2207E-03  0.3980E+00
      0.680 -0.8244E-03  0.3980E+00
      0.735  0.2838E-02  0.3981E+00
      0.789  0.9810E-02  0.3987E+00
      0.844  0.1302E-01  0.3994E+00
      0.898  0.8771E-02  0.3998E+00
      0.953  0.7034E-02  0.4002E+00
      1.007  0.1355E-01  0.4010E+00
      1.062  0.1403E-01  0.4017E+00
      1.116  0.4903E-02  0.4020E+00
      1.171  0.1653E-02  0.4021E+00
      1.225  0.9050E-02  0.4026E+00
      1.280  0.1820E-01  0.4036E+00
      1.335  0.2065E-01  0.4047E+00
      1.389  0.2064E-01  0.4058E+00
      1.444  0.2194E-01  0.4070E+00
      1.498  0.1507E-01  0.4078E+00
      1.553  0.3232E-02  0.4080E+00
      1.607 -0.4998E-03  0.4080E+00
      1.662  0.6999E-02  0.4084E+00
      1.716  0.1716E-01  0.4093E+00
      1.771  0.1750E-01  0.4103E+00
      1.825  0.1192E-01  0.4109E+00
      1.880  0.1440E-01  0.4117E+00
      1.935  0.2527E-01  0.4131E+00
      1.989  0.2982E-01  0.4147E+00
      2.044  0.1954E-01  0.4158E+00
      2.098  0.5008E-02  0.4160E+00
      2.153  0.1114E-03  0.4161E+00
      2.207  0.5603E-02  0.4164E+00
      2.262  0.1263E-01  0.4170E+00
      2.316  0.1195E-01  0.4177E+00
      2.371  0.4746E-02  0.4180E+00
      2.425  0.1639E-02  0.4180E+00
      2.480  0.7917E-02  0.4185E+00
      2.535  0.1611E-01  0.4194E+00
      2.589  0.1952E-01  0.4204E+00
      2.644  0.1767E-01  0.4214E+00
      2.698  0.8915E-02  0.4219E+00
      2.753  0.4205E-02  0.4221E+00
      2.807  0.1525E-01  0.4229E+00
      2.862  0.2891E-01  0.4245E+00
      2.916  0.3116E-01  0.4262E+00
      2.971  0.2840E-01  0.4278E+00
      3.025  0.1911E-01  0.4288E+00
      3.080  0.4851E-02  0.4291E+00
      3.134 -0.7864E-03  0.4290E+00
      3.189  0.3406E-02  0.4292E+00
      3.244  0.1207E-01  0.4299E+00
      3.298  0.2281E-01  0.4311E+00
      3.353  0.2706E-01  0.4326E+00
      3.407  0.1803E-01  0.4336E+00
      3.462  0.1427E-01  0.4344E+00
      3.516  0.2991E-01  0.4360E+00
      3.571  0.4090E-01  0.4382E+00
      3.625  0.3553E-01  0.4402E+00
      3.680  0.2853E-01  0.4417E+00
      3.734  0.2194E-01  0.4429E+00
      3.789  0.1430E-01  0.4437E+00
      3.844  0.5722E-02  0.4440E+00
      3.898  0.1695E-02  0.4441E+00
      3.953  0.5041E-02  0.4444E+00
      4.007  0.7554E-02  0.4448E+00
      4.062  0.6634E-02  0.4451E+00
      4.116  0.7516E-02  0.4455E+00
      4.171  0.6200E-02  0.4459E+00
      4.225  0.1582E-02  0.4460E+00
      4.280  0.2580E-02  0.4461E+00
      4.334  0.1108E-01  0.4467E+00
      4.389  0.1518E-01  0.4475E+00
      4.444  0.8352E-02  0.4480E+00
      4.498  0.1012E-02  0.4481E+00
      4.553 -0.7063E-03  0.4480E+00
      4.607 -0.2843E-03  0.4480E+00
      4.662 -0.4225E-04  0.4480E+00
      4.716 -0.3045E-05  0.4480E+00
      4.771 -0.1140E-06  0.4480E+00
      4.825 -0.2274E-08  0.4480E+00
      4.880 -0.2449E-10  0.4480E+00
      4.934 -0.1432E-12  0.4480E+00
      4.989 -0.4600E-15  0.4480E+00
      5.044  0.0000E+00  0.4480E+00
      5.098  0.0000E+00  0.4480E+00
      5.153  0.0000E+00  0.4480E+00
      5.207  0.0000E+00  0.4480E+00
      5.262  0.0000E+00  0.4480E+00
      5.316  0.0000E+00  0.4480E+00
      5.371  0.0000E+00  0.4480E+00
