 vasp.6.1.0 28Jan20 (build May 12 2023 01:18:31) complex                        
  
 02/POSCAR found :  2 types and      17 ions
 scaLAPACK will be used
 LDA part: xc-table for Pade appr. of Perdew
 00/POSCAR found :  2 types and      17 ions
 06/POSCAR found :  2 types and      17 ions
 Jacobian:    15.6764062845614     
 00/POSCAR found :  2 types and      17 ions
 06/POSCAR found :  2 types and      17 ions
 POSCAR, INCAR and KPOINTS ok, starting setup
 FFT: planning ...
 WAVECAR not read
 entering main loop
       N       E                     dE             d eps       ncg     rms          rms(c)
DAV:   1     0.150801670387E+04    0.15080E+04   -0.62970E+04  1792   0.135E+03
DAV:   2     0.758211924516E+02   -0.14322E+04   -0.13784E+04  1800   0.365E+02
DAV:   3    -0.605616277161E+02   -0.13638E+03   -0.12365E+03  2016   0.161E+02
DAV:   4    -0.691849531137E+02   -0.86233E+01   -0.84828E+01  2248   0.484E+01
DAV:   5    -0.693934242389E+02   -0.20847E+00   -0.20810E+00  2168   0.676E+00    0.286E+01
DAV:   6    -0.627212055164E+02    0.66722E+01   -0.15400E+02  1984   0.128E+02    0.155E+01
DAV:   7    -0.566779084287E+02    0.60433E+01   -0.30336E+01  2160   0.825E+01    0.450E+00
DAV:   8    -0.568389779045E+02   -0.16107E+00   -0.62966E+00  2224   0.435E+01    0.287E+00
DAV:   9    -0.568791454324E+02   -0.40168E-01   -0.18640E+00  2280   0.225E+01    0.268E+00
DAV:  10    -0.568400016531E+02    0.39144E-01   -0.80588E-01  2096   0.223E+01    0.183E+00
DAV:  11    -0.567749008003E+02    0.65101E-01   -0.57426E-01  2592   0.168E+01    0.652E-01
DAV:  12    -0.567668892995E+02    0.80115E-02   -0.22175E-01  2504   0.729E+00    0.294E-01
DAV:  13    -0.567704458273E+02   -0.35565E-02   -0.67594E-02  2032   0.313E+00    0.213E-01
DAV:  14    -0.567703690207E+02    0.76807E-04   -0.10380E-02  2128   0.178E+00    0.228E-01
DAV:  15    -0.567694590179E+02    0.91000E-03   -0.45616E-03  2032   0.101E+00    0.651E-02
DAV:  16    -0.567696518428E+02   -0.19282E-03   -0.20650E-03  2328   0.640E-01    0.108E-01
DAV:  17    -0.567695566663E+02    0.95177E-04   -0.17044E-03  2048   0.560E-01    0.451E-02
DAV:  18    -0.567697762344E+02   -0.21957E-03   -0.73973E-04  2208   0.369E-01    0.936E-02
DAV:  19    -0.567697916045E+02   -0.15370E-04   -0.95860E-04  1920   0.379E-01    0.207E-02
DAV:  20    -0.567700698913E+02   -0.27829E-03   -0.12179E-04  2288   0.159E-01    0.136E-02
DAV:  21    -0.567701751266E+02   -0.10524E-03   -0.18332E-05  2008   0.908E-02    0.832E-03
DAV:  22    -0.567703618614E+02   -0.18673E-03   -0.16840E-05  2312   0.529E-02    0.710E-03
DAV:  23    -0.567705071992E+02   -0.14534E-03   -0.92675E-06  2480   0.377E-02    0.400E-03
DAV:  24    -0.567705547103E+02   -0.47511E-04   -0.28427E-06  2456   0.267E-02    0.266E-03
DAV:  25    -0.567706123591E+02   -0.57649E-04   -0.32843E-06  2096   0.200E-02    0.574E-03
DAV:  26    -0.567706368342E+02   -0.24475E-04   -0.16322E-06  2032   0.174E-02    0.305E-03
DAV:  27    -0.567706468242E+02   -0.99899E-05   -0.96254E-07  1896   0.119E-02    0.178E-03
DAV:  28    -0.567706585144E+02   -0.11690E-04   -0.27738E-07  1192   0.832E-03    0.169E-03
DAV:  29    -0.567706643133E+02   -0.57989E-05   -0.10457E-07  1184   0.387E-03    0.161E-03
DAV:  30    -0.567706669881E+02   -0.26748E-05   -0.79600E-08  1104   0.356E-03    0.150E-03
DAV:  31    -0.567706692034E+02   -0.22153E-05   -0.55375E-08  1104   0.270E-03    0.147E-03
DAV:  32    -0.567706700717E+02   -0.86825E-06   -0.28262E-08  1136   0.165E-03    0.146E-03
DAV:  33    -0.567706704312E+02   -0.35953E-06   -0.16050E-08  1072   0.136E-03    0.146E-03
DAV:  34    -0.567706706179E+02   -0.18667E-06   -0.11293E-08  1136   0.143E-03    0.145E-03
DAV:  35    -0.567706706414E+02   -0.23563E-07   -0.44124E-09  1136   0.707E-04
   1 F= -.56770671E+02 E0= -.56765562E+02  d E =-.567707E+02
quench:  g(F)=  0.000E+00 g(S)=  0.000E+00 dE (1.order)= 0.000E+00
 bond charge predicted
       N       E                     dE             d eps       ncg     rms          rms(c)
DAV:   1    -0.568461797650E+02   -0.75509E-01   -0.63895E+00  1824   0.707E+00    0.330E-01
DAV:   2    -0.568599200420E+02   -0.13740E-01   -0.14487E-01  2624   0.285E+00    0.315E-01
DAV:   3    -0.568596192931E+02    0.30075E-03   -0.78426E-03  2048   0.185E+00    0.192E-01
DAV:   4    -0.568597585453E+02   -0.13925E-03   -0.36891E-03  2000   0.147E+00    0.131E-01
DAV:   5    -0.568598277127E+02   -0.69167E-04   -0.60695E-03  2096   0.190E+00    0.989E-02
DAV:   6    -0.568595062268E+02    0.32149E-03   -0.27046E-03  2304   0.135E+00    0.222E-02
DAV:   7    -0.568595133134E+02   -0.70866E-05   -0.34160E-04  2720   0.291E-01    0.134E-02
DAV:   8    -0.568595164431E+02   -0.31297E-05   -0.81773E-05  2000   0.103E-01    0.974E-03
DAV:   9    -0.568595164677E+02   -0.24604E-07   -0.19634E-05  1984   0.716E-02    0.627E-03
DAV:  10    -0.568595161917E+02    0.27601E-06   -0.57932E-06  3248   0.389E-02    0.294E-03
DAV:  11    -0.568595161018E+02    0.89854E-07   -0.32414E-06  2504   0.300E-02    0.195E-03
DAV:  12    -0.568595163301E+02   -0.22827E-06   -0.96776E-07  1936   0.165E-02    0.189E-03
DAV:  13    -0.568595164752E+02   -0.14513E-06   -0.18166E-07  1072   0.854E-03    0.164E-03
DAV:  14    -0.568595168400E+02   -0.36478E-06   -0.14889E-07  1104   0.713E-03    0.146E-03
DAV:  15    -0.568595170862E+02   -0.24623E-06   -0.46363E-08  1104   0.308E-03    0.143E-03
DAV:  16    -0.568595172682E+02   -0.18196E-06   -0.22013E-08  1072   0.194E-03    0.141E-03
DAV:  17    -0.568595176469E+02   -0.37869E-06   -0.20188E-08  1072   0.147E-03    0.140E-03
DAV:  18    -0.568595180628E+02   -0.41588E-06   -0.13874E-08  1072   0.143E-03    0.140E-03
DAV:  19    -0.568595182953E+02   -0.23255E-06   -0.13462E-08  1120   0.101E-03    0.140E-03
DAV:  20    -0.568595183621E+02   -0.66793E-07   -0.53839E-09  1104   0.753E-04
   2 F= -.56859518E+02 E0= -.56854616E+02  d E =-.888477E-01
quench:  g(F)=  0.000E+00 g(S)=  0.000E+00 dE (1.order)= 0.000E+00
 bond charge predicted
       N       E                     dE             d eps       ncg     rms          rms(c)
DAV:   1    -0.569152052144E+02   -0.55687E-01   -0.19846E+01  1808   0.125E+01    0.565E-01
DAV:   2    -0.569658423931E+02   -0.50637E-01   -0.54295E-01  2656   0.650E+00    0.646E-01
DAV:   3    -0.569626075307E+02    0.32349E-02   -0.28090E-02  2096   0.394E+00    0.341E-01
DAV:   4    -0.569629554594E+02   -0.34793E-03   -0.12352E-02  2464   0.219E+00    0.261E-01
DAV:   5    -0.569633235366E+02   -0.36808E-03   -0.21453E-02  1984   0.362E+00    0.208E-01
DAV:   6    -0.569621196512E+02    0.12039E-02   -0.86795E-03  2288   0.246E+00    0.458E-02
DAV:   7    -0.569622170829E+02   -0.97432E-04   -0.15183E-03  2576   0.492E-01    0.334E-02
DAV:   8    -0.569622211747E+02   -0.40919E-05   -0.31471E-04  1984   0.237E-01    0.247E-02
DAV:   9    -0.569622181179E+02    0.30568E-05   -0.89050E-05  2048   0.151E-01    0.136E-02
DAV:  10    -0.569622161161E+02    0.20019E-05   -0.31158E-05  3392   0.970E-02    0.489E-03
DAV:  11    -0.569622153117E+02    0.80440E-06   -0.14424E-05  2752   0.664E-02    0.301E-03
DAV:  12    -0.569622158537E+02   -0.54202E-06   -0.36982E-06  1968   0.317E-02    0.270E-03
DAV:  13    -0.569622161729E+02   -0.31923E-06   -0.10225E-06  1888   0.195E-02    0.181E-03
DAV:  14    -0.569622167938E+02   -0.62088E-06   -0.34652E-07  1520   0.101E-02    0.140E-03
DAV:  15    -0.569622175731E+02   -0.77932E-06   -0.66331E-08  1088   0.388E-03    0.139E-03
DAV:  16    -0.569622180470E+02   -0.47392E-06   -0.50598E-08  1168   0.345E-03    0.133E-03
DAV:  17    -0.569622187776E+02   -0.73059E-06   -0.25448E-08  1072   0.232E-03    0.131E-03
DAV:  18    -0.569622198766E+02   -0.10990E-05   -0.45550E-08  1088   0.225E-03    0.131E-03
DAV:  19    -0.569622203402E+02   -0.46353E-06   -0.22785E-08  1152   0.155E-03    0.130E-03
DAV:  20    -0.569622206042E+02   -0.26408E-06   -0.10357E-08  1056   0.109E-03    0.129E-03
DAV:  21    -0.569622209175E+02   -0.31324E-06   -0.77598E-09  1072   0.690E-04    0.129E-03
DAV:  22    -0.569622210746E+02   -0.15708E-06   -0.41175E-09  1088   0.625E-04    0.129E-03
DAV:  23    -0.569622211522E+02   -0.77642E-07   -0.18611E-09  1024   0.395E-04
   3 F= -.56962221E+02 E0= -.56957681E+02  d E =-.102703E+00
quench:  g(F)=  0.000E+00 g(S)=  0.000E+00 dE (1.order)= 0.000E+00
 bond charge predicted
       N       E                     dE             d eps       ncg     rms          rms(c)
DAV:   1    -0.569441631426E+02    0.18058E-01   -0.29592E+01  1808   0.153E+01    0.602E-01
DAV:   2    -0.570215327354E+02   -0.77370E-01   -0.82683E-01  2640   0.770E+00    0.751E-01
DAV:   3    -0.570169308238E+02    0.46019E-02   -0.38144E-02  2128   0.434E+00    0.390E-01
DAV:   4    -0.570170545194E+02   -0.12370E-03   -0.13930E-02  2432   0.230E+00    0.323E-01
DAV:   5    -0.570170959338E+02   -0.41414E-04   -0.20893E-02  1984   0.357E+00    0.225E-01
DAV:   6    -0.570159426483E+02    0.11533E-02   -0.98134E-03  2352   0.254E+00    0.753E-02
DAV:   7    -0.570160886795E+02   -0.14603E-03   -0.25241E-03  2592   0.696E-01    0.455E-02
DAV:   8    -0.570160901921E+02   -0.15127E-05   -0.51090E-04  2000   0.279E-01    0.376E-02
DAV:   9    -0.570160804625E+02    0.97296E-05   -0.15584E-04  1952   0.211E-01    0.199E-02
DAV:  10    -0.570160743736E+02    0.60889E-05   -0.66591E-05  3440   0.159E-01    0.719E-03
DAV:  11    -0.570160726454E+02    0.17282E-05   -0.24352E-05  2720   0.950E-02    0.377E-03
DAV:  12    -0.570160730028E+02   -0.35737E-06   -0.46249E-06  2016   0.332E-02    0.297E-03
DAV:  13    -0.570160731846E+02   -0.18178E-06   -0.14527E-06  1888   0.234E-02    0.165E-03
DAV:  14    -0.570160738291E+02   -0.64454E-06   -0.23665E-07  1136   0.758E-03    0.152E-03
DAV:  15    -0.570160744001E+02   -0.57096E-06   -0.11994E-07  1120   0.587E-03    0.146E-03
DAV:  16    -0.570160749248E+02   -0.52470E-06   -0.68511E-08  1072   0.412E-03    0.142E-03
DAV:  17    -0.570160756699E+02   -0.74511E-06   -0.38967E-08  1088   0.200E-03    0.139E-03
DAV:  18    -0.570160765296E+02   -0.85967E-06   -0.49305E-08  1088   0.275E-03    0.138E-03
DAV:  19    -0.570160768366E+02   -0.30706E-06   -0.23034E-08  1184   0.150E-03    0.137E-03
DAV:  20    -0.570160772032E+02   -0.36655E-06   -0.13796E-08  1072   0.149E-03    0.136E-03
DAV:  21    -0.570160775144E+02   -0.31124E-06   -0.97267E-09  1072   0.646E-04    0.136E-03
DAV:  22    -0.570160775480E+02   -0.33579E-07   -0.38851E-09  1168   0.589E-04
   4 F= -.57016078E+02 E0= -.57011874E+02  d E =-.538564E-01
quench:  g(F)=  0.000E+00 g(S)=  0.000E+00 dE (1.order)= 0.000E+00
 bond charge predicted
       N       E                     dE             d eps       ncg     rms          rms(c)
DAV:   1    -0.569978380187E+02    0.18239E-01   -0.15418E+01  1856   0.118E+01    0.298E-01
DAV:   2    -0.570330972312E+02   -0.35259E-01   -0.36858E-01  2640   0.407E+00    0.396E-01
DAV:   3    -0.570319190097E+02    0.11782E-02   -0.12315E-02  2096   0.203E+00    0.222E-01
DAV:   4    -0.570317684613E+02    0.15055E-03   -0.33906E-03  2176   0.125E+00    0.201E-01
DAV:   5    -0.570314762533E+02    0.29221E-03   -0.36148E-03  2160   0.141E+00    0.129E-01
DAV:   6    -0.570312602032E+02    0.21605E-03   -0.35894E-03  2960   0.139E+00    0.816E-02
DAV:   7    -0.570311824631E+02    0.77740E-04   -0.12999E-03  2784   0.746E-01    0.245E-02
DAV:   8    -0.570311990776E+02   -0.16614E-04   -0.33335E-04  2048   0.213E-01    0.270E-02
DAV:   9    -0.570311965276E+02    0.25500E-05   -0.95038E-05  1952   0.119E-01    0.171E-02
DAV:  10    -0.570311927495E+02    0.37782E-05   -0.72483E-05  2456   0.147E-01    0.101E-02
DAV:  11    -0.570311911540E+02    0.15955E-05   -0.15916E-05  2288   0.826E-02    0.340E-03
DAV:  12    -0.570311912991E+02   -0.14512E-06   -0.18603E-06  2192   0.233E-02    0.349E-03
DAV:  13    -0.570311912021E+02    0.97014E-07   -0.76601E-07  1888   0.148E-02
   5 F= -.57031191E+02 E0= -.57026713E+02  d E =-.151137E-01
quench:  g(F)=  0.000E+00 g(S)=  0.000E+00 dE (1.order)= 0.000E+00
 bond charge predicted
       N       E                     dE             d eps       ncg     rms          rms(c)
DAV:   1    -0.570242830261E+02    0.69083E-02   -0.63284E+00  1856   0.784E+00    0.162E-01
DAV:   2    -0.570364774360E+02   -0.12194E-01   -0.12675E-01  2640   0.219E+00    0.228E-01
DAV:   3    -0.570359086465E+02    0.56879E-03   -0.28982E-03  2000   0.858E-01    0.138E-01
DAV:   4    -0.570357901459E+02    0.11850E-03   -0.60031E-04  2320   0.390E-01    0.120E-01
DAV:   5    -0.570356471816E+02    0.14296E-03   -0.61876E-04  2120   0.634E-01    0.828E-02
DAV:   6    -0.570355777980E+02    0.69384E-04   -0.18467E-03  3424   0.871E-01    0.560E-02
DAV:   7    -0.570354857379E+02    0.92060E-04   -0.67305E-04  2960   0.639E-01    0.159E-02
DAV:   8    -0.570354978742E+02   -0.12136E-04   -0.15181E-04  2096   0.102E-01    0.157E-02
DAV:   9    -0.570354972454E+02    0.62884E-06   -0.12713E-05  1984   0.428E-02    0.129E-02
DAV:  10    -0.570354954308E+02    0.18145E-05   -0.26349E-06  2744   0.279E-02    0.851E-03
DAV:  11    -0.570354951734E+02    0.25747E-06   -0.98406E-06  2608   0.278E-02    0.375E-03
DAV:  12    -0.570354952067E+02   -0.33331E-07   -0.93739E-07  1968   0.184E-02
   6 F= -.57035495E+02 E0= -.57030809E+02  d E =-.430400E-02
quench:  g(F)=  0.000E+00 g(S)=  0.000E+00 dE (1.order)= 0.000E+00
 bond charge predicted
       N       E                     dE             d eps       ncg     rms          rms(c)
DAV:   1    -0.570303961639E+02    0.50990E-02   -0.35146E+00  1856   0.584E+00    0.119E-01
DAV:   2    -0.570371483368E+02   -0.67522E-02   -0.70200E-02  2656   0.153E+00    0.144E-01
DAV:   3    -0.570369359514E+02    0.21239E-03   -0.18131E-03  1960   0.554E-01    0.103E-01
DAV:   4    -0.570369002093E+02    0.35742E-04   -0.68307E-04  2032   0.637E-01    0.881E-02
DAV:   5    -0.570367762993E+02    0.12391E-03   -0.50016E-04  2976   0.522E-01    0.628E-02
DAV:   6    -0.570367438387E+02    0.32461E-04   -0.67078E-04  3312   0.606E-01    0.370E-02
DAV:   7    -0.570366973254E+02    0.46513E-04   -0.31316E-04  3200   0.373E-01    0.102E-02
DAV:   8    -0.570367019720E+02   -0.46466E-05   -0.61913E-05  2224   0.678E-02    0.979E-03
DAV:   9    -0.570367024837E+02   -0.51171E-06   -0.12129E-05  1984   0.347E-02    0.882E-03
DAV:  10    -0.570367016384E+02    0.84529E-06   -0.19146E-06  2160   0.196E-02    0.593E-03
DAV:  11    -0.570367015479E+02    0.90549E-07   -0.28744E-06  2656   0.267E-02    0.292E-03
DAV:  12    -0.570367015960E+02   -0.48149E-07   -0.76576E-07  1952   0.196E-02
   7 F= -.57036702E+02 E0= -.57031929E+02  d E =-.120639E-02
quench:  g(F)=  0.000E+00 g(S)=  0.000E+00 dE (1.order)= 0.000E+00
 bond charge predicted
       N       E                     dE             d eps       ncg     rms          rms(c)
DAV:   1    -0.570372616849E+02   -0.56014E-03   -0.24234E-01  1856   0.154E+00    0.377E-02
DAV:   2    -0.570376761039E+02   -0.41442E-03   -0.43721E-03  2624   0.398E-01    0.340E-02
DAV:   3    -0.570376690170E+02    0.70869E-05   -0.98361E-05  2200   0.187E-01    0.262E-02
DAV:   4    -0.570376652410E+02    0.37760E-05   -0.43880E-05  2016   0.173E-01    0.204E-02
DAV:   5    -0.570376671802E+02   -0.19392E-05   -0.88160E-05  2240   0.245E-01    0.171E-02
DAV:   6    -0.570376584875E+02    0.86927E-05   -0.68415E-05  2832   0.207E-01    0.476E-03
DAV:   7    -0.570376589871E+02   -0.49960E-06   -0.13722E-05  2816   0.420E-02    0.333E-03
DAV:   8    -0.570376590656E+02   -0.78551E-07   -0.17508E-06  2048   0.112E-02    0.307E-03
DAV:   9    -0.570376590001E+02    0.65531E-07   -0.88272E-08  1008   0.450E-03
   8 F= -.57037659E+02 E0= -.57032823E+02  d E =-.957404E-03
quench:  g(F)=  0.000E+00 g(S)=  0.000E+00 dE (1.order)= 0.000E+00
 bond charge predicted
       N       E                     dE             d eps       ncg     rms          rms(c)
DAV:   1    -0.570379639647E+02   -0.30490E-03   -0.12996E-01  1856   0.113E+00    0.207E-02
DAV:   2    -0.570381867472E+02   -0.22278E-03   -0.23346E-03  2624   0.292E-01    0.240E-02
DAV:   3    -0.570381844484E+02    0.22988E-05   -0.11000E-04  1936   0.192E-01    0.200E-02
DAV:   4    -0.570381820379E+02    0.24105E-05   -0.24808E-05  1952   0.118E-01    0.161E-02
DAV:   5    -0.570381782505E+02    0.37874E-05   -0.14294E-05  3216   0.579E-02    0.105E-02
DAV:   6    -0.570381768543E+02    0.13962E-05   -0.12153E-05  2768   0.920E-02    0.696E-03
DAV:   7    -0.570381761538E+02    0.70049E-06   -0.52471E-06  2592   0.489E-02    0.376E-03
DAV:   8    -0.570381760827E+02    0.71050E-07   -0.14439E-06  2368   0.238E-02    0.187E-03
DAV:   9    -0.570381761414E+02   -0.58732E-07   -0.57273E-07  1728   0.773E-03
   9 F= -.57038176E+02 E0= -.57033320E+02  d E =-.517141E-03
quench:  g(F)=  0.000E+00 g(S)=  0.000E+00 dE (1.order)= 0.000E+00
 bond charge predicted
       N       E                     dE             d eps       ncg     rms          rms(c)
DAV:   1    -0.570391076425E+02   -0.93156E-03   -0.13828E-01  1856   0.113E+00    0.200E-02
DAV:   2    -0.570393452087E+02   -0.23757E-03   -0.24650E-03  2624   0.296E-01    0.230E-02
DAV:   3    -0.570393427250E+02    0.24837E-05   -0.90609E-05  2040   0.168E-01    0.187E-02
DAV:   4    -0.570393407236E+02    0.20014E-05   -0.23086E-05  1968   0.115E-01    0.156E-02
DAV:   5    -0.570393366921E+02    0.40315E-05   -0.12990E-05  3240   0.581E-02    0.972E-03
DAV:   6    -0.570393351467E+02    0.15454E-05   -0.11557E-05  3176   0.790E-02    0.589E-03
DAV:   7    -0.570393345742E+02    0.57249E-06   -0.39583E-06  2296   0.469E-02    0.306E-03
DAV:   8    -0.570393345870E+02   -0.12809E-07   -0.12562E-06  2144   0.189E-02    0.177E-03
DAV:   9    -0.570393346268E+02   -0.39843E-07   -0.46169E-07  1648   0.684E-03
  10 F= -.57039335E+02 E0= -.57034448E+02  d E =-.115849E-02
quench:  g(F)=  0.000E+00 g(S)=  0.000E+00 dE (1.order)= 0.000E+00
 bond charge predicted
       N       E                     dE             d eps       ncg     rms          rms(c)
DAV:   1    -0.570396337777E+02   -0.29919E-03   -0.14206E-01  1856   0.118E+00    0.217E-02
DAV:   2    -0.570398822331E+02   -0.24846E-03   -0.26060E-03  2624   0.309E-01    0.257E-02
DAV:   3    -0.570398793941E+02    0.28390E-05   -0.12880E-04  1936   0.208E-01    0.210E-02
DAV:   4    -0.570398768058E+02    0.25884E-05   -0.29213E-05  1968   0.128E-01    0.170E-02
DAV:   5    -0.570398721821E+02    0.46237E-05   -0.15965E-05  3112   0.567E-02    0.109E-02
DAV:   6    -0.570398704199E+02    0.17622E-05   -0.12156E-05  2784   0.907E-02    0.705E-03
DAV:   7    -0.570398696014E+02    0.81847E-06   -0.53697E-06  2512   0.523E-02    0.358E-03
DAV:   8    -0.570398695527E+02    0.48716E-07   -0.16054E-06  2424   0.235E-02    0.186E-03
DAV:   9    -0.570398696031E+02   -0.50411E-07   -0.58431E-07  1784   0.768E-03
  11 F= -.57039870E+02 E0= -.57034952E+02  d E =-.534976E-03
quench:  g(F)=  0.000E+00 g(S)=  0.000E+00 dE (1.order)= 0.000E+00
 bond charge predicted
       N       E                     dE             d eps       ncg     rms          rms(c)
DAV:   1    -0.570401169918E+02   -0.24744E-03   -0.16776E-01  1856   0.127E+00    0.237E-02
DAV:   2    -0.570404160530E+02   -0.29906E-03   -0.31423E-03  2624   0.342E-01    0.283E-02
DAV:   3    -0.570404128921E+02    0.31609E-05   -0.16600E-04  1952   0.237E-01    0.230E-02
DAV:   4    -0.570404098069E+02    0.30852E-05   -0.36683E-05  1952   0.142E-01    0.183E-02
DAV:   5    -0.570404046197E+02    0.51872E-05   -0.18759E-05  3120   0.621E-02    0.120E-02
DAV:   6    -0.570404025411E+02    0.20786E-05   -0.13996E-05  2632   0.991E-02    0.765E-03
DAV:   7    -0.570404015429E+02    0.99817E-06   -0.68488E-06  2600   0.572E-02    0.372E-03
DAV:   8    -0.570404015008E+02    0.42131E-07   -0.19222E-06  2656   0.246E-02    0.197E-03
DAV:   9    -0.570404015513E+02   -0.50462E-07   -0.64685E-07  1792   0.832E-03
  12 F= -.57040402E+02 E0= -.57035450E+02  d E =-.531948E-03
quench:  g(F)=  0.000E+00 g(S)=  0.000E+00 dE (1.order)= 0.000E+00
 bond charge predicted
       N       E                     dE             d eps       ncg     rms          rms(c)
DAV:   1    -0.570405801812E+02   -0.17868E-03   -0.19235E-01  1848   0.136E+00    0.256E-02
DAV:   2    -0.570409298830E+02   -0.34970E-03   -0.36808E-03  2624   0.372E-01    0.307E-02
DAV:   3    -0.570409265493E+02    0.33338E-05   -0.20699E-04  1968   0.265E-01    0.247E-02
DAV:   4    -0.570409228969E+02    0.36523E-05   -0.44697E-05  1936   0.156E-01    0.194E-02
DAV:   5    -0.570409172703E+02    0.56267E-05   -0.21349E-05  3160   0.672E-02    0.130E-02
DAV:   6    -0.570409148171E+02    0.24532E-05   -0.15630E-05  2464   0.107E-01    0.816E-03
DAV:   7    -0.570409136871E+02    0.11300E-05   -0.85401E-06  2720   0.614E-02    0.379E-03
DAV:   8    -0.570409136725E+02    0.14625E-07   -0.21595E-06  2728   0.250E-02    0.206E-03
DAV:   9    -0.570409137232E+02   -0.50662E-07   -0.70202E-07  1872   0.903E-03
  13 F= -.57040914E+02 E0= -.57035927E+02  d E =-.512172E-03
quench:  g(F)=  0.000E+00 g(S)=  0.000E+00 dE (1.order)= 0.000E+00
 bond charge predicted
       N       E                     dE             d eps       ncg     rms          rms(c)
DAV:   1    -0.570410492184E+02   -0.13555E-03   -0.21432E-01  1848   0.143E+00    0.272E-02
DAV:   2    -0.570414425850E+02   -0.39337E-03   -0.41469E-03  2624   0.398E-01    0.327E-02
DAV:   3    -0.570414390341E+02    0.35508E-05   -0.24685E-04  1968   0.290E-01    0.262E-02
DAV:   4    -0.570414347749E+02    0.42592E-05   -0.52230E-05  1936   0.167E-01    0.203E-02
DAV:   5    -0.570414287192E+02    0.60557E-05   -0.23768E-05  3120   0.707E-02    0.138E-02
DAV:   6    -0.570414257951E+02    0.29241E-05   -0.17116E-05  2344   0.113E-01    0.860E-03
DAV:   7    -0.570414244989E+02    0.12962E-05   -0.10099E-05  2712   0.651E-02    0.382E-03
DAV:   8    -0.570414245161E+02   -0.17273E-07   -0.24879E-06  2808   0.255E-02    0.214E-03
DAV:   9    -0.570414245750E+02   -0.58833E-07   -0.73842E-07  1904   0.958E-03
  14 F= -.57041425E+02 E0= -.57036399E+02  d E =-.510852E-03
quench:  g(F)=  0.000E+00 g(S)=  0.000E+00 dE (1.order)= 0.000E+00
 bond charge predicted
       N       E                     dE             d eps       ncg     rms          rms(c)
DAV:   1    -0.570414601766E+02   -0.35660E-04   -0.23395E-01  1840   0.149E+00    0.286E-02
DAV:   2    -0.570419010049E+02   -0.44083E-03   -0.46517E-03  2624   0.426E-01    0.346E-02
DAV:   3    -0.570418978695E+02    0.31355E-05   -0.29583E-04  1992   0.318E-01    0.275E-02
DAV:   4    -0.570418930725E+02    0.47970E-05   -0.61755E-05  1936   0.181E-01    0.210E-02
DAV:   5    -0.570418867889E+02    0.62836E-05   -0.26348E-05  3048   0.757E-02    0.147E-02
DAV:   6    -0.570418833845E+02    0.34043E-05   -0.18270E-05  2208   0.118E-01    0.908E-03
DAV:   7    -0.570418818871E+02    0.14975E-05   -0.11823E-05  2760   0.678E-02    0.380E-03
DAV:   8    -0.570418819357E+02   -0.48571E-07   -0.27761E-06  2992   0.253E-02    0.222E-03
DAV:   9    -0.570418819966E+02   -0.60962E-07   -0.76130E-07  1936   0.100E-02
  15 F= -.57041882E+02 E0= -.57036821E+02  d E =-.457422E-03
quench:  g(F)=  0.000E+00 g(S)=  0.000E+00 dE (1.order)= 0.000E+00
 bond charge predicted
       N       E                     dE             d eps       ncg     rms          rms(c)
DAV:   1    -0.570420059124E+02   -0.12398E-03   -0.23556E-01  1840   0.150E+00    0.292E-02
DAV:   2    -0.570424313745E+02   -0.42546E-03   -0.45031E-03  2624   0.420E-01    0.345E-02
DAV:   3    -0.570424272980E+02    0.40764E-05   -0.28652E-04  1928   0.318E-01    0.278E-02
DAV:   4    -0.570424220097E+02    0.52883E-05   -0.59799E-05  1968   0.176E-01    0.210E-02
DAV:   5    -0.570424155923E+02    0.64174E-05   -0.26155E-05  3080   0.743E-02    0.144E-02
DAV:   6    -0.570424121289E+02    0.34634E-05   -0.19587E-05  2344   0.122E-01    0.869E-03
DAV:   7    -0.570424107775E+02    0.13514E-05   -0.11092E-05  2688   0.692E-02    0.368E-03
DAV:   8    -0.570424108576E+02   -0.80090E-07   -0.27124E-06  2856   0.259E-02    0.214E-03
DAV:   9    -0.570424109223E+02   -0.64680E-07   -0.72408E-07  1968   0.102E-02
  16 F= -.57042411E+02 E0= -.57037298E+02  d E =-.528926E-03
quench:  g(F)=  0.000E+00 g(S)=  0.000E+00 dE (1.order)= 0.000E+00
 bond charge predicted
       N       E                     dE             d eps       ncg     rms          rms(c)
DAV:   1    -0.570422788721E+02    0.13199E-03   -0.86666E-02  1840   0.869E-01    0.212E-02
DAV:   2    -0.570424552667E+02   -0.17639E-03   -0.18617E-03  2624   0.273E-01    0.214E-02
DAV:   3    -0.570424564125E+02   -0.11459E-05   -0.10160E-04  2080   0.185E-01    0.165E-02
DAV:   4    -0.570424547248E+02    0.16878E-05   -0.35162E-05  2000   0.153E-01    0.129E-02
DAV:   5    -0.570424526210E+02    0.21037E-05   -0.16280E-05  3152   0.875E-02    0.799E-03
DAV:   6    -0.570424518473E+02    0.77373E-06   -0.88900E-06  2400   0.791E-02    0.507E-03
DAV:   7    -0.570424513988E+02    0.44848E-06   -0.39760E-06  2528   0.389E-02    0.197E-03
DAV:   8    -0.570424514427E+02   -0.43841E-07   -0.90180E-07  2016   0.133E-02
  17 F= -.57042451E+02 E0= -.57037358E+02  d E =-.405204E-04
quench:  g(F)=  0.000E+00 g(S)=  0.000E+00 dE (1.order)= 0.000E+00
 bond charge predicted
       N       E                     dE             d eps       ncg     rms          rms(c)
DAV:   1    -0.570425056260E+02   -0.54227E-04   -0.63453E-04  1904   0.777E-02    0.225E-03
DAV:   2    -0.570425067077E+02   -0.10817E-05   -0.12149E-05  2656   0.268E-02    0.252E-03
DAV:   3    -0.570425066915E+02    0.16185E-07   -0.78013E-07  1824   0.206E-02
  18 F= -.57042507E+02 E0= -.57037409E+02  d E =-.552489E-04
quench:  g(F)=  0.000E+00 g(S)=  0.000E+00 dE (1.order)= 0.000E+00
 bond charge predicted
       N       E                     dE             d eps       ncg     rms          rms(c)
DAV:   1    -0.570426017167E+02   -0.95009E-04   -0.21308E-03  1856   0.143E-01    0.410E-03
DAV:   2    -0.570426052921E+02   -0.35754E-05   -0.39681E-05  2624   0.384E-02    0.376E-03
DAV:   3    -0.570426052059E+02    0.86147E-07   -0.77294E-07  2032   0.158E-02
  19 F= -.57042605E+02 E0= -.57037499E+02  d E =-.985144E-04
quench:  g(F)=  0.000E+00 g(S)=  0.000E+00 dE (1.order)= 0.000E+00
 bond charge predicted
       N       E                     dE             d eps       ncg     rms          rms(c)
DAV:   1    -0.570427436345E+02   -0.13834E-03   -0.38479E-03  1840   0.192E-01    0.538E-03
DAV:   2    -0.570427498298E+02   -0.61954E-05   -0.68706E-05  2624   0.488E-02    0.509E-03
DAV:   3    -0.570427495988E+02    0.23107E-06   -0.12260E-06  2176   0.228E-02    0.385E-03
DAV:   4    -0.570427494570E+02    0.14177E-06   -0.54276E-07  1664   0.211E-02    0.296E-03
DAV:   5    -0.570427492799E+02    0.17713E-06   -0.42263E-07  1488   0.120E-02    0.120E-03
DAV:   6    -0.570427492807E+02   -0.84037E-09   -0.17102E-07  1120   0.943E-03
  20 F= -.57042749E+02 E0= -.57037633E+02  d E =-.144075E-03
quench:  g(F)=  0.000E+00 g(S)=  0.000E+00 dE (1.order)= 0.000E+00
 bond charge predicted
       N       E                     dE             d eps       ncg     rms          rms(c)
DAV:   1    -0.570429255971E+02   -0.17632E-03   -0.49815E-03  1840   0.215E-01    0.452E-03
DAV:   2    -0.570429337168E+02   -0.81197E-05   -0.88157E-05  2624   0.565E-02    0.413E-03
DAV:   3    -0.570429337082E+02    0.86766E-08   -0.43410E-06  2024   0.387E-02    0.387E-03
DAV:   4    -0.570429335469E+02    0.16121E-06   -0.10453E-06  1896   0.244E-02    0.281E-03
DAV:   5    -0.570429333856E+02    0.16131E-06   -0.25150E-07  1120   0.103E-02    0.205E-03
DAV:   6    -0.570429333012E+02    0.84485E-07   -0.92044E-07  2296   0.187E-02
  21 F= -.57042933E+02 E0= -.57037808E+02  d E =-.184020E-03
quench:  g(F)=  0.000E+00 g(S)=  0.000E+00 dE (1.order)= 0.000E+00
 bond charge predicted
       N       E                     dE             d eps       ncg     rms          rms(c)
DAV:   1    -0.570431094300E+02   -0.17604E-03   -0.55561E-03  1856   0.224E-01    0.436E-03
DAV:   2    -0.570431191635E+02   -0.97335E-05   -0.10451E-04  2624   0.596E-02    0.455E-03
DAV:   3    -0.570431190289E+02    0.13463E-06   -0.29569E-06  2080   0.244E-02    0.346E-03
DAV:   4    -0.570431189434E+02    0.85456E-07   -0.82554E-07  1872   0.213E-02
  22 F= -.57043119E+02 E0= -.57037987E+02  d E =-.185642E-03
quench:  g(F)=  0.000E+00 g(S)=  0.000E+00 dE (1.order)= 0.000E+00
 bond charge predicted
       N       E                     dE             d eps       ncg     rms          rms(c)
DAV:   1    -0.570432884310E+02   -0.16940E-03   -0.67703E-03  1840   0.252E-01    0.525E-03
DAV:   2    -0.570432999814E+02   -0.11550E-04   -0.12884E-04  2640   0.745E-02    0.634E-03
DAV:   3    -0.570432999484E+02    0.33051E-07   -0.10504E-05  2000   0.583E-02    0.560E-03
DAV:   4    -0.570432997557E+02    0.19271E-06   -0.18036E-06  1888   0.273E-02    0.439E-03
DAV:   5    -0.570432992630E+02    0.49263E-06   -0.90112E-07  2096   0.143E-02    0.298E-03
DAV:   6    -0.570432990010E+02    0.26205E-06   -0.10698E-06  2096   0.197E-02    0.219E-03
DAV:   7    -0.570432989256E+02    0.75383E-07   -0.29861E-07  1152   0.137E-02
  23 F= -.57043299E+02 E0= -.57038161E+02  d E =-.179982E-03
quench:  g(F)=  0.000E+00 g(S)=  0.000E+00 dE (1.order)= 0.000E+00
 bond charge predicted
       N       E                     dE             d eps       ncg     rms          rms(c)
DAV:   1    -0.570434262192E+02   -0.12722E-03   -0.79081E-03  1872   0.270E-01    0.528E-03
DAV:   2    -0.570434407462E+02   -0.14527E-04   -0.15732E-04  2624   0.787E-02    0.605E-03
DAV:   3    -0.570434407125E+02    0.33768E-07   -0.10565E-05  2024   0.606E-02    0.500E-03
DAV:   4    -0.570434405047E+02    0.20778E-06   -0.22251E-06  1936   0.344E-02    0.367E-03
DAV:   5    -0.570434402217E+02    0.28296E-06   -0.69974E-07  1928   0.142E-02    0.285E-03
DAV:   6    -0.570434399615E+02    0.26026E-06   -0.85624E-07  2016   0.217E-02    0.190E-03
DAV:   7    -0.570434398326E+02    0.12889E-06   -0.25420E-07  1120   0.112E-02    0.118E-03
DAV:   8    -0.570434398251E+02    0.74178E-08   -0.10068E-07  1008   0.485E-03
  24 F= -.57043440E+02 E0= -.57038295E+02  d E =-.140900E-03
quench:  g(F)=  0.000E+00 g(S)=  0.000E+00 dE (1.order)= 0.000E+00
 bond charge predicted
       N       E                     dE             d eps       ncg     rms          rms(c)
DAV:   1    -0.570435420647E+02   -0.10223E-03   -0.90341E-03  1864   0.291E-01    0.568E-03
DAV:   2    -0.570435583210E+02   -0.16256E-04   -0.17634E-04  2640   0.892E-02    0.697E-03
DAV:   3    -0.570435582682E+02    0.52743E-07   -0.14080E-05  2000   0.726E-02    0.533E-03
DAV:   4    -0.570435580442E+02    0.22402E-06   -0.27849E-06  1984   0.355E-02    0.398E-03
DAV:   5    -0.570435577394E+02    0.30479E-06   -0.93945E-07  2304   0.153E-02    0.308E-03
DAV:   6    -0.570435574379E+02    0.30154E-06   -0.71836E-07  1856   0.220E-02    0.184E-03
DAV:   7    -0.570435573291E+02    0.10880E-06   -0.35667E-07  1104   0.132E-02    0.106E-03
DAV:   8    -0.570435573321E+02   -0.30304E-08   -0.14164E-07  1064   0.355E-03
  25 F= -.57043557E+02 E0= -.57038405E+02  d E =-.117507E-03
quench:  g(F)=  0.000E+00 g(S)=  0.000E+00 dE (1.order)= 0.000E+00
 bond charge predicted
       N       E                     dE             d eps       ncg     rms          rms(c)
DAV:   1    -0.570436198725E+02   -0.62543E-04   -0.10146E-02  1872   0.307E-01    0.605E-03
DAV:   2    -0.570436385197E+02   -0.18647E-04   -0.20203E-04  2640   0.960E-02    0.746E-03
DAV:   3    -0.570436384508E+02    0.68867E-07   -0.16609E-05  2008   0.785E-02    0.566E-03
DAV:   4    -0.570436381882E+02    0.26264E-06   -0.32875E-06  1976   0.385E-02    0.415E-03
DAV:   5    -0.570436378977E+02    0.29046E-06   -0.10815E-06  2400   0.168E-02    0.328E-03
DAV:   6    -0.570436375848E+02    0.31286E-06   -0.78314E-07  1888   0.237E-02    0.196E-03
DAV:   7    -0.570436374468E+02    0.13808E-06   -0.42900E-07  1088   0.143E-02    0.106E-03
DAV:   8    -0.570436374538E+02   -0.70395E-08   -0.18545E-07  1072   0.362E-03
  26 F= -.57043637E+02 E0= -.57038478E+02  d E =-.801217E-04
quench:  g(F)=  0.000E+00 g(S)=  0.000E+00 dE (1.order)= 0.000E+00
 bond charge predicted
       N       E                     dE             d eps       ncg     rms          rms(c)
DAV:   1    -0.570436997919E+02   -0.62345E-04   -0.11154E-02  1872   0.322E-01    0.634E-03
DAV:   2    -0.570437201864E+02   -0.20394E-04   -0.22073E-04  2640   0.998E-02    0.774E-03
DAV:   3    -0.570437200647E+02    0.12169E-06   -0.18069E-05  2000   0.819E-02    0.593E-03
DAV:   4    -0.570437197724E+02    0.29224E-06   -0.35804E-06  2000   0.403E-02    0.431E-03
DAV:   5    -0.570437194628E+02    0.30966E-06   -0.12099E-06  2544   0.175E-02    0.338E-03
DAV:   6    -0.570437191523E+02    0.31044E-06   -0.82072E-07  1880   0.250E-02    0.203E-03
DAV:   7    -0.570437189965E+02    0.15585E-06   -0.45992E-07  1088   0.148E-02    0.106E-03
DAV:   8    -0.570437190061E+02   -0.96261E-08   -0.20130E-07  1072   0.381E-03
  27 F= -.57043719E+02 E0= -.57038552E+02  d E =-.815523E-04
quench:  g(F)=  0.000E+00 g(S)=  0.000E+00 dE (1.order)= 0.000E+00
 bond charge predicted
       N       E                     dE             d eps       ncg     rms          rms(c)
DAV:   1    -0.570437179440E+02    0.10525E-05   -0.11907E-02  1872   0.330E-01    0.658E-03
DAV:   2    -0.570437402762E+02   -0.22332E-04   -0.24129E-04  2640   0.105E-01    0.804E-03
DAV:   3    -0.570437401255E+02    0.15071E-06   -0.20063E-05  2024   0.863E-02    0.609E-03
DAV:   4    -0.570437398236E+02    0.30182E-06   -0.39849E-06  2000   0.426E-02    0.438E-03
DAV:   5    -0.570437395411E+02    0.28253E-06   -0.12989E-06  2544   0.181E-02    0.346E-03
DAV:   6    -0.570437392221E+02    0.31904E-06   -0.86636E-07  1912   0.253E-02    0.206E-03
DAV:   7    -0.570437390617E+02    0.16038E-06   -0.47761E-07  1088   0.151E-02    0.106E-03
DAV:   8    -0.570437390650E+02   -0.33324E-08   -0.21984E-07  1080   0.377E-03
  28 F= -.57043739E+02 E0= -.57038564E+02  d E =-.200589E-04
quench:  g(F)=  0.000E+00 g(S)=  0.000E+00 dE (1.order)= 0.000E+00
 bond charge predicted
       N       E                     dE             d eps       ncg     rms          rms(c)
DAV:   1    -0.570437891549E+02   -0.50093E-04   -0.12291E-02  1872   0.331E-01    0.670E-03
DAV:   2    -0.570438128235E+02   -0.23669E-04   -0.25484E-04  2640   0.106E-01    0.803E-03
DAV:   3    -0.570438127118E+02    0.11174E-06   -0.20411E-05  2048   0.865E-02    0.611E-03
DAV:   4    -0.570438123753E+02    0.33651E-06   -0.41234E-06  1992   0.444E-02    0.434E-03
DAV:   5    -0.570438121060E+02    0.26924E-06   -0.13390E-06  2552   0.189E-02    0.344E-03
DAV:   6    -0.570438118062E+02    0.29983E-06   -0.87644E-07  1904   0.255E-02    0.209E-03
DAV:   7    -0.570438116122E+02    0.19402E-06   -0.46038E-07  1088   0.147E-02    0.107E-03
DAV:   8    -0.570438116069E+02    0.52896E-08   -0.21708E-07  1120   0.392E-03
  29 F= -.57043812E+02 E0= -.57038631E+02  d E =-.725419E-04
quench:  g(F)=  0.000E+00 g(S)=  0.000E+00 dE (1.order)= 0.000E+00
 bond charge predicted
       N       E                     dE             d eps       ncg     rms          rms(c)
DAV:   1    -0.570437864894E+02    0.25123E-04   -0.22429E-04  1840   0.456E-02    0.162E-03
DAV:   2    -0.570437868865E+02   -0.39713E-06   -0.43291E-06  2720   0.166E-02    0.174E-03
DAV:   3    -0.570437868760E+02    0.10477E-07   -0.24551E-07  1008   0.119E-02
  30 F= -.57043787E+02 E0= -.57038604E+02  d E =0.247308E-04
quench:  g(F)=  0.000E+00 g(S)=  0.000E+00 dE (1.order)= 0.000E+00
 bond charge predicted
       N       E                     dE             d eps       ncg     rms          rms(c)
DAV:   1    -0.570437858699E+02    0.10166E-05   -0.24007E-06  2208   0.791E-03    0.114E-03
DAV:   2    -0.570437858996E+02   -0.29660E-07   -0.23745E-07  1152   0.117E-02
  31 F= -.57043786E+02 E0= -.57038603E+02  d E =0.976470E-06
quench:  g(F)=  0.000E+00 g(S)=  0.000E+00 dE (1.order)= 0.000E+00
 bond charge predicted
       N       E                     dE             d eps       ncg     rms          rms(c)
DAV:   1    -0.570437852887E+02    0.58121E-06   -0.82239E-07  1872   0.103E-02    0.101E-03
DAV:   2    -0.570437853246E+02   -0.35910E-07   -0.33317E-07  1424   0.766E-03
  32 F= -.57043785E+02 E0= -.57038602E+02  d E =0.574961E-06
quench:  g(F)=  0.000E+00 g(S)=  0.000E+00 dE (1.order)= 0.000E+00
 reached required accuracy - stopping structural energy minimisation
