unknown system                          
           1
     5.147737    0.000000    0.000000
     0.000000    5.147737    0.000000
     0.000000    0.000000   35.260000
   Cu   Ag
    16     1
Direct configuration=     1
   0.25000000  0.25000000  0.99705048
   0.75000000  0.25000000  0.99705048
   0.25000000  0.75000000  0.99705048
   0.75000000  0.75000000  0.99705048
   0.00000000  0.00000000  0.04866704
   0.50000000  0.00000000  0.04866704
   0.00000000  0.50000000  0.04866704
   0.50000000  0.50000000  0.04866704
   0.25016832  0.24994536  0.09964617
   0.75016306  0.25014304  0.10014275
   0.25017340  0.75022678  0.09978812
   0.75016554  0.75003986  0.10037596
   0.99890022  0.99978014  0.15042920
   0.50165415  0.99978834  0.15043664
   0.99665986  0.50134559  0.15003696
   0.50389045  0.50133549  0.15004499
   0.25017969  0.41680100  0.20415194
Direct configuration=     2
   0.25000000  0.25000000  0.99705048
   0.75000000  0.25000000  0.99705048
   0.25000000  0.75000000  0.99705048
   0.75000000  0.75000000  0.99705048
   0.00000000  0.00000000  0.04866704
   0.50000000  0.00000000  0.04866704
   0.00000000  0.50000000  0.04866704
   0.50000000  0.50000000  0.04866704
   0.25016692  0.24964349  0.09963869
   0.75016101  0.25011408  0.10011042
   0.25017187  0.75056292  0.09978783
   0.75016370  0.75009402  0.10035515
   0.99971018  1.00028206  0.15052372
   0.50083607  1.00028858  0.15053068
   0.99349691  0.50238355  0.14941988
   0.50704013  0.50237267  0.14942906
   0.25018421  0.41656489  0.20526298
Direct configuration=     3
   0.25000000  0.25000000  0.99705048
   0.75000000  0.25000000  0.99705048
   0.25000000  0.75000000  0.99705048
   0.75000000  0.75000000  0.99705048
   0.00000000  0.00000000  0.04866704
   0.50000000  0.00000000  0.04866704
   0.00000000  0.50000000  0.04866704
   0.50000000  0.50000000  0.04866704
   0.25016344  0.24906188  0.09961660
   0.75015595  0.24950303  0.09997070
   0.25016871  0.75136709  0.09976519
   0.75015914  0.75096707  0.10021681
   1.00120581  1.00145971  0.15072010
   0.49932159  1.00146287  0.15072609
   0.99044574  0.50356457  0.14870198
   0.51006567  0.50355451  0.14871190
   0.25018927  0.41581321  0.20665627
Direct configuration=     4
   0.25000000  0.25000000  0.99705048
   0.75000000  0.25000000  0.99705048
   0.25000000  0.75000000  0.99705048
   0.75000000  0.75000000  0.99705048
   0.00000000  0.00000000  0.04866704
   0.50000000  0.00000000  0.04866704
   0.00000000  0.50000000  0.04866704
   0.50000000  0.50000000  0.04866704
   0.25015544  0.24837561  0.09955088
   0.75014469  0.24753789  0.09962297
   0.25016114  0.75289156  0.09968887
   0.75014630  0.75399313  0.09983114
   1.00304687  1.00369118  0.15105266
   0.49744368  1.00368986  0.15105652
   0.99187240  0.50400049  0.14849765
   0.50859515  0.50399634  0.14850555
   0.25019379  0.41529241  0.20747094
Direct configuration=     5
   0.25000000  0.25000000  0.99705048
   0.75000000  0.25000000  0.99705048
   0.25000000  0.75000000  0.99705048
   0.75000000  0.75000000  0.99705048
   0.00000000  0.00000000  0.04866704
   0.50000000  0.00000000  0.04866704
   0.00000000  0.50000000  0.04866704
   0.50000000  0.50000000  0.04866704
   0.25013339  0.24869226  0.09939969
   0.75012758  0.24838402  0.09966358
   0.25013661  0.75429567  0.09966945
   0.75013016  0.75483957  0.10001892
   1.00348480  1.00594759  0.15140073
   0.49695271  1.00594737  0.15140262
   0.99377332  0.50500572  0.14847295
   0.50663029  0.50500394  0.14847742
   0.25019885  0.41556119  0.20774929
Direct configuration=     6
   0.25000000  0.25000000  0.99705048
   0.75000000  0.25000000  0.99705048
   0.25000000  0.75000000  0.99705048
   0.75000000  0.75000000  0.99705048
   0.00000000  0.00000000  0.04866704
   0.50000000  0.00000000  0.04866704
   0.00000000  0.50000000  0.04866704
   0.50000000  0.50000000  0.04866704
   0.25010842  0.24907723  0.09943722
   0.75010960  0.24885243  0.09984837
   0.25011473  0.75571497  0.09973834
   0.75011034  0.75626839  0.10020747
   1.00371230  1.00737774  0.15156744
   0.49666598  1.00737664  0.15156839
   0.99331710  0.50638787  0.14854428
   0.50702875  0.50639403  0.14854374
   0.25019942  0.41616557  0.20800482
Direct configuration=     7
   0.25000000  0.25000000  0.99705048
   0.75000000  0.25000000  0.99705048
   0.25000000  0.75000000  0.99705048
   0.75000000  0.75000000  0.99705048
   0.00000000  0.00000000  0.04866704
   0.50000000  0.00000000  0.04866704
   0.00000000  0.50000000  0.04866704
   0.50000000  0.50000000  0.04866704
   0.25010518  0.24940432  0.09945179
   0.75010733  0.24907187  0.09983211
   0.25010972  0.75565267  0.09975113
   0.75010960  0.75635182  0.10018933
   1.00372316  1.00764190  0.15160961
   0.49664406  1.00764244  0.15161049
   0.99380279  0.50653384  0.14861290
   0.50653070  0.50653900  0.14861261
   0.25019448  0.41602861  0.20796521
Direct configuration=     8
   0.25000000  0.25000000  0.99705048
   0.75000000  0.25000000  0.99705048
   0.25000000  0.75000000  0.99705048
   0.75000000  0.75000000  0.99705048
   0.00000000  0.00000000  0.04866704
   0.50000000  0.00000000  0.04866704
   0.00000000  0.50000000  0.04866704
   0.50000000  0.50000000  0.04866704
   0.25010089  0.24963317  0.09946764
   0.75010331  0.24938480  0.09985135
   0.25010458  0.75572972  0.09976858
   0.75010599  0.75635715  0.10021343
   1.00372302  1.00791691  0.15165155
   0.49662896  1.00791896  0.15165227
   0.99388159  0.50679872  0.14864642
   0.50643538  0.50680423  0.14864592
   0.25018859  0.41600204  0.20799956
Direct configuration=     9
   0.25000000  0.25000000  0.99705048
   0.75000000  0.25000000  0.99705048
   0.25000000  0.75000000  0.99705048
   0.75000000  0.75000000  0.99705048
   0.00000000  0.00000000  0.04866704
   0.50000000  0.00000000  0.04866704
   0.00000000  0.50000000  0.04866704
   0.50000000  0.50000000  0.04866704
   0.25009630  0.24977460  0.09948235
   0.75009904  0.24955394  0.09987195
   0.25009980  0.75588487  0.09978539
   0.75010178  0.75649810  0.10023657
   1.00372448  1.00819282  0.15168613
   0.49661273  1.00819576  0.15168665
   0.99392874  0.50705638  0.14868398
   0.50637259  0.50706261  0.14868306
   0.25018385  0.41561757  0.20802997
Direct configuration=    10
   0.25000000  0.25000000  0.99705048
   0.75000000  0.25000000  0.99705048
   0.25000000  0.75000000  0.99705048
   0.75000000  0.75000000  0.99705048
   0.00000000  0.00000000  0.04866704
   0.50000000  0.00000000  0.04866704
   0.00000000  0.50000000  0.04866704
   0.50000000  0.50000000  0.04866704
   0.25009047  0.24993306  0.09950153
   0.75009387  0.24974027  0.09990015
   0.25009354  0.75604131  0.09980637
   0.75009663  0.75664038  0.10026578
   1.00372698  1.00846651  0.15172557
   0.49659253  1.00847072  0.15172604
   0.99396171  0.50731711  0.14872837
   0.50632207  0.50732411  0.14872687
   0.25017391  0.41556097  0.20807443
Direct configuration=    11
   0.25000000  0.25000000  0.99705048
   0.75000000  0.25000000  0.99705048
   0.25000000  0.75000000  0.99705048
   0.75000000  0.75000000  0.99705048
   0.00000000  0.00000000  0.04866704
   0.50000000  0.00000000  0.04866704
   0.00000000  0.50000000  0.04866704
   0.50000000  0.50000000  0.04866704
   0.25008385  0.25009746  0.09952386
   0.75008780  0.24992501  0.09993132
   0.25008599  0.75619782  0.09983106
   0.75009040  0.75679319  0.10029792
   1.00373052  1.00874529  0.15176859
   0.49656775  1.00875007  0.15176882
   0.99398743  0.50758320  0.14877826
   0.50627486  0.50758977  0.14877637
   0.25016619  0.41550048  0.20812810
Direct configuration=    12
   0.25000000  0.25000000  0.99705048
   0.75000000  0.25000000  0.99705048
   0.25000000  0.75000000  0.99705048
   0.75000000  0.75000000  0.99705048
   0.00000000  0.00000000  0.04866704
   0.50000000  0.00000000  0.04866704
   0.00000000  0.50000000  0.04866704
   0.50000000  0.50000000  0.04866704
   0.25007608  0.25026464  0.09954916
   0.75008072  0.25011496  0.09996492
   0.25007799  0.75634710  0.09985881
   0.75008247  0.75693783  0.10033265
   1.00373319  1.00902085  0.15181482
   0.49654141  1.00902492  0.15181474
   0.99401204  0.50784081  0.14883415
   0.50622629  0.50784738  0.14883183
   0.25015692  0.41543462  0.20819140
Direct configuration=    13
   0.25000000  0.25000000  0.99705048
   0.75000000  0.25000000  0.99705048
   0.25000000  0.75000000  0.99705048
   0.75000000  0.75000000  0.99705048
   0.00000000  0.00000000  0.04866704
   0.50000000  0.00000000  0.04866704
   0.00000000  0.50000000  0.04866704
   0.50000000  0.50000000  0.04866704
   0.25006716  0.25042479  0.09957694
   0.75007261  0.25029730  0.10000037
   0.25006874  0.75648485  0.09988958
   0.75007488  0.75707461  0.10036966
   1.00373175  1.00928383  0.15186349
   0.49651457  1.00928724  0.15186317
   0.99404476  0.50808366  0.14889796
   0.50616689  0.50808962  0.14889519
   0.25014862  0.41534797  0.20826036
Direct configuration=    14
   0.25000000  0.25000000  0.99705048
   0.75000000  0.25000000  0.99705048
   0.25000000  0.75000000  0.99705048
   0.75000000  0.75000000  0.99705048
   0.00000000  0.00000000  0.04866704
   0.50000000  0.00000000  0.04866704
   0.00000000  0.50000000  0.04866704
   0.50000000  0.50000000  0.04866704
   0.25005728  0.25057756  0.09960739
   0.75006257  0.25048892  0.10003977
   0.25005888  0.75659702  0.09992328
   0.75006429  0.75716903  0.10041248
   1.00372875  1.00952466  0.15191481
   0.49648472  1.00952785  0.15191421
   0.99405184  0.50830668  0.14896372
   0.50613257  0.50831297  0.14896029
   0.25014307  0.41525497  0.20834004
Direct configuration=    15
   0.25000000  0.25000000  0.99705048
   0.75000000  0.25000000  0.99705048
   0.25000000  0.75000000  0.99705048
   0.75000000  0.75000000  0.99705048
   0.00000000  0.00000000  0.04866704
   0.50000000  0.00000000  0.04866704
   0.00000000  0.50000000  0.04866704
   0.50000000  0.50000000  0.04866704
   0.25004664  0.25069761  0.09963822
   0.75005449  0.25058697  0.10007204
   0.25004694  0.75670623  0.09995673
   0.75005703  0.75732421  0.10044604
   1.00372548  1.00974032  0.15196604
   0.49645306  1.00974422  0.15196556
   0.99415382  0.50847657  0.14904523
   0.50600240  0.50848434  0.14904169
   0.25012615  0.41509489  0.20840535
Direct configuration=    16
   0.25000000  0.25000000  0.99705048
   0.75000000  0.25000000  0.99705048
   0.25000000  0.75000000  0.99705048
   0.75000000  0.75000000  0.99705048
   0.00000000  0.00000000  0.04866704
   0.50000000  0.00000000  0.04866704
   0.00000000  0.50000000  0.04866704
   0.50000000  0.50000000  0.04866704
   0.25004388  0.25076852  0.09965174
   0.75004694  0.25078574  0.10010272
   0.25004546  0.75670089  0.09997413
   0.75004833  0.75718672  0.10048386
   1.00371522  1.00979374  0.15198899
   0.49644625  1.00979880  0.15198834
   0.99396455  0.50857638  0.14904760
   0.50617788  0.50858412  0.14904389
   0.25011867  0.41507302  0.20846978
Direct configuration=    17
   0.25000000  0.25000000  0.99705048
   0.75000000  0.25000000  0.99705048
   0.25000000  0.75000000  0.99705048
   0.75000000  0.75000000  0.99705048
   0.00000000  0.00000000  0.04866704
   0.50000000  0.00000000  0.04866704
   0.00000000  0.50000000  0.04866704
   0.50000000  0.50000000  0.04866704
   0.25004352  0.25076915  0.09965236
   0.75004688  0.25077524  0.10010205
   0.25004504  0.75670663  0.09997455
   0.75004831  0.75720586  0.10048263
   1.00371571  1.00980138  0.15199005
   0.49644497  1.00980647  0.15198943
   0.99398506  0.50857624  0.14905182
   0.50615666  0.50858395  0.14904814
   0.25011832  0.41505306  0.20846755
Direct configuration=    18
   0.25000000  0.25000000  0.99705048
   0.75000000  0.25000000  0.99705048
   0.25000000  0.75000000  0.99705048
   0.75000000  0.75000000  0.99705048
   0.00000000  0.00000000  0.04866704
   0.50000000  0.00000000  0.04866704
   0.00000000  0.50000000  0.04866704
   0.50000000  0.50000000  0.04866704
   0.25004276  0.25077100  0.09965365
   0.75004668  0.25075731  0.10010108
   0.25004417  0.75671725  0.09997554
   0.75004819  0.75724047  0.10048075
   1.00371641  1.00981610  0.15199230
   0.49644251  1.00982125  0.15199173
   0.99402193  0.50857732  0.14905983
   0.50611819  0.50858499  0.14905621
   0.25011777  0.41501606  0.20846456
Direct configuration=    19
   0.25000000  0.25000000  0.99705048
   0.75000000  0.25000000  0.99705048
   0.25000000  0.75000000  0.99705048
   0.75000000  0.75000000  0.99705048
   0.00000000  0.00000000  0.04866704
   0.50000000  0.00000000  0.04866704
   0.00000000  0.50000000  0.04866704
   0.50000000  0.50000000  0.04866704
   0.25004154  0.25077593  0.09965590
   0.75004620  0.25073908  0.10010079
   0.25004280  0.75673187  0.09997764
   0.75004780  0.75728366  0.10047964
   1.00371705  1.00983785  0.15199614
   0.49643882  1.00984309  0.15199563
   0.99406548  0.50858366  0.14907088
   0.50607194  0.50859130  0.14906733
   0.25011661  0.41495764  0.20846244
Direct configuration=    20
   0.25000000  0.25000000  0.99705048
   0.75000000  0.25000000  0.99705048
   0.25000000  0.75000000  0.99705048
   0.75000000  0.75000000  0.99705048
   0.00000000  0.00000000  0.04866704
   0.50000000  0.00000000  0.04866704
   0.00000000  0.50000000  0.04866704
   0.50000000  0.50000000  0.04866704
   0.25003980  0.25078684  0.09965947
   0.75004514  0.25073432  0.10010291
   0.25004097  0.75674718  0.09998151
   0.75004683  0.75732037  0.10048173
   1.00371689  1.00986563  0.15200227
   0.49643405  1.00987092  0.15200183
   0.99409735  0.50860052  0.14908297
   0.50603592  0.50860821  0.14907956
   0.25011470  0.41487858  0.20846447
Direct configuration=    21
   0.25000000  0.25000000  0.99705048
   0.75000000  0.25000000  0.99705048
   0.25000000  0.75000000  0.99705048
   0.75000000  0.75000000  0.99705048
   0.00000000  0.00000000  0.04866704
   0.50000000  0.00000000  0.04866704
   0.00000000  0.50000000  0.04866704
   0.50000000  0.50000000  0.04866704
   0.25003800  0.25080272  0.09966376
   0.75004343  0.25075183  0.10010786
   0.25003913  0.75675954  0.09998654
   0.75004518  0.75733425  0.10048764
   1.00371578  1.00989543  0.15201002
   0.49642855  1.00990062  0.15200962
   0.99410352  0.50862600  0.14909358
   0.50602452  0.50863382  0.14909017
   0.25011142  0.41479642  0.20847261
Direct configuration=    22
   0.25000000  0.25000000  0.99705048
   0.75000000  0.25000000  0.99705048
   0.25000000  0.75000000  0.99705048
   0.75000000  0.75000000  0.99705048
   0.00000000  0.00000000  0.04866704
   0.50000000  0.00000000  0.04866704
   0.00000000  0.50000000  0.04866704
   0.50000000  0.50000000  0.04866704
   0.25003587  0.25082141  0.09966926
   0.75004093  0.25077506  0.10011465
   0.25003677  0.75677136  0.09999281
   0.75004280  0.75734539  0.10049540
   1.00371339  1.00992611  0.15201913
   0.49642265  1.00993130  0.15201877
   0.99410409  0.50865488  0.14910510
   0.50601738  0.50866287  0.14910176
   0.25010936  0.41471798  0.20848141
Direct configuration=    23
   0.25000000  0.25000000  0.99705048
   0.75000000  0.25000000  0.99705048
   0.25000000  0.75000000  0.99705048
   0.75000000  0.75000000  0.99705048
   0.00000000  0.00000000  0.04866704
   0.50000000  0.00000000  0.04866704
   0.00000000  0.50000000  0.04866704
   0.50000000  0.50000000  0.04866704
   0.25003338  0.25083934  0.09967486
   0.75003838  0.25079676  0.10012135
   0.25003407  0.75678456  0.09999905
   0.75004013  0.75735872  0.10050278
   1.00371136  1.00995608  0.15202942
   0.49641550  1.00996126  0.15202916
   0.99410491  0.50868123  0.14911775
   0.50600974  0.50868918  0.14911439
   0.25010472  0.41465556  0.20849530
Direct configuration=    24
   0.25000000  0.25000000  0.99705048
   0.75000000  0.25000000  0.99705048
   0.25000000  0.75000000  0.99705048
   0.75000000  0.75000000  0.99705048
   0.00000000  0.00000000  0.04866704
   0.50000000  0.00000000  0.04866704
   0.00000000  0.50000000  0.04866704
   0.50000000  0.50000000  0.04866704
   0.25003060  0.25085827  0.09968134
   0.75003534  0.25082042  0.10012915
   0.25003116  0.75679558  0.10000620
   0.75003694  0.75736925  0.10051133
   1.00370793  1.00998535  0.15204068
   0.49640794  1.00999070  0.15204032
   0.99410798  0.50870616  0.14913202
   0.50599802  0.50871424  0.14912873
   0.25009999  0.41460452  0.20850952
Direct configuration=    25
   0.25000000  0.25000000  0.99705048
   0.75000000  0.25000000  0.99705048
   0.25000000  0.75000000  0.99705048
   0.75000000  0.75000000  0.99705048
   0.00000000  0.00000000  0.04866704
   0.50000000  0.00000000  0.04866704
   0.00000000  0.50000000  0.04866704
   0.50000000  0.50000000  0.04866704
   0.25002722  0.25087492  0.09968841
   0.75003199  0.25084354  0.10013776
   0.25002770  0.75680598  0.10001399
   0.75003355  0.75737845  0.10052073
   1.00370443  1.01001237  0.15205227
   0.49639889  1.01001785  0.15205202
   0.99410908  0.50872923  0.14914680
   0.50598750  0.50873771  0.14914351
   0.25009198  0.41456893  0.20852671
Direct configuration=    26
   0.25000000  0.25000000  0.99705048
   0.75000000  0.25000000  0.99705048
   0.25000000  0.75000000  0.99705048
   0.75000000  0.75000000  0.99705048
   0.00000000  0.00000000  0.04866704
   0.50000000  0.00000000  0.04866704
   0.00000000  0.50000000  0.04866704
   0.50000000  0.50000000  0.04866704
   0.25002394  0.25089227  0.09969558
   0.75002797  0.25086672  0.10014653
   0.25002385  0.75681525  0.10002179
   0.75002938  0.75738632  0.10053015
   1.00369973  1.01003886  0.15206431
   0.49638906  1.01004459  0.15206414
   0.99411378  0.50874965  0.14916291
   0.50597119  0.50875721  0.14915990
   0.25008295  0.41453055  0.20854449
Direct configuration=    27
   0.25000000  0.25000000  0.99705048
   0.75000000  0.25000000  0.99705048
   0.25000000  0.75000000  0.99705048
   0.75000000  0.75000000  0.99705048
   0.00000000  0.00000000  0.04866704
   0.50000000  0.00000000  0.04866704
   0.00000000  0.50000000  0.04866704
   0.50000000  0.50000000  0.04866704
   0.25001982  0.25090712  0.09970299
   0.75002395  0.25088633  0.10015561
   0.25002072  0.75682147  0.10003006
   0.75002432  0.75739108  0.10054044
   1.00369457  1.01005883  0.15207618
   0.49637825  1.01006353  0.15207603
   0.99411531  0.50876718  0.14917905
   0.50595636  0.50877463  0.14917651
   0.25006575  0.41451826  0.20856508
Direct configuration=    28
   0.25000000  0.25000000  0.99705048
   0.75000000  0.25000000  0.99705048
   0.25000000  0.75000000  0.99705048
   0.75000000  0.75000000  0.99705048
   0.00000000  0.00000000  0.04866704
   0.50000000  0.00000000  0.04866704
   0.00000000  0.50000000  0.04866704
   0.50000000  0.50000000  0.04866704
   0.25001621  0.25092507  0.09971019
   0.75001616  0.25092193  0.10016549
   0.25001400  0.75682675  0.10003739
   0.75001991  0.75738489  0.10055037
   1.00368726  1.01008576  0.15208811
   0.49636579  1.01009079  0.15208791
   0.99410476  0.50878093  0.14919323
   0.50594805  0.50878362  0.14919186
   0.25005285  0.41447661  0.20858749
Direct configuration=    29
   0.25000000  0.25000000  0.99705048
   0.75000000  0.25000000  0.99705048
   0.25000000  0.75000000  0.99705048
   0.75000000  0.75000000  0.99705048
   0.00000000  0.00000000  0.04866704
   0.50000000  0.00000000  0.04866704
   0.00000000  0.50000000  0.04866704
   0.50000000  0.50000000  0.04866704
   0.25001490  0.25092368  0.09971038
   0.75001665  0.25091230  0.10016491
   0.25001485  0.75682793  0.10003805
   0.75001807  0.75739457  0.10055027
   1.00368663  1.01008476  0.15208848
   0.49636511  1.01008844  0.15208830
   0.99411698  0.50878016  0.14919584
   0.50593570  0.50878447  0.14919413
   0.25005046  0.41449061  0.20858608
Direct configuration=    30
   0.25000000  0.25000000  0.99705048
   0.75000000  0.25000000  0.99705048
   0.25000000  0.75000000  0.99705048
   0.75000000  0.75000000  0.99705048
   0.00000000  0.00000000  0.04866704
   0.50000000  0.00000000  0.04866704
   0.00000000  0.50000000  0.04866704
   0.50000000  0.50000000  0.04866704
   0.25001485  0.25092379  0.09971039
   0.75001660  0.25091287  0.10016497
   0.25001474  0.75682791  0.10003807
   0.75001808  0.75739400  0.10055035
   1.00368654  1.01008466  0.15208849
   0.49636507  1.01008837  0.15208832
   0.99411608  0.50878036  0.14919571
   0.50593647  0.50878461  0.14919401
   0.25005060  0.41449074  0.20858656
Direct configuration=    31
   0.25000000  0.25000000  0.99705048
   0.75000000  0.25000000  0.99705048
   0.25000000  0.75000000  0.99705048
   0.75000000  0.75000000  0.99705048
   0.00000000  0.00000000  0.04866704
   0.50000000  0.00000000  0.04866704
   0.00000000  0.50000000  0.04866704
   0.50000000  0.50000000  0.04866704
   0.25001480  0.25092365  0.09971041
   0.75001664  0.25091218  0.10016493
   0.25001482  0.75682798  0.10003811
   0.75001796  0.75739464  0.10055035
   1.00368657  1.01008473  0.15208853
   0.49636504  1.01008835  0.15208836
   0.99411692  0.50878040  0.14919591
   0.50593559  0.50878475  0.14919420
   0.25005037  0.41449109  0.20858654
Direct configuration=    32
   0.25000000  0.25000000  0.99705048
   0.75000000  0.25000000  0.99705048
   0.25000000  0.75000000  0.99705048
   0.75000000  0.75000000  0.99705048
   0.00000000  0.00000000  0.04866704
   0.50000000  0.00000000  0.04866704
   0.00000000  0.50000000  0.04866704
   0.50000000  0.50000000  0.04866704
   0.25001480  0.25092365  0.09971041
   0.75001664  0.25091218  0.10016493
   0.25001482  0.75682798  0.10003811
   0.75001796  0.75739464  0.10055035
   1.00368657  1.01008473  0.15208853
   0.49636504  1.01008835  0.15208836
   0.99411692  0.50878040  0.14919591
   0.50593559  0.50878475  0.14919420
   0.25005037  0.41449109  0.20858654
