  17  17   0   0
  0.5496246E+02  0.5147737E-09  0.5147737E-09  0.3526000E-08  0.0000000E+00
  1.000000000000000E-004
  CAR 
 unknown system                          
      5.37088896    -10.99249255  301     -1.50548765      1.00000000
    -10.992  0.0000E+00  0.0000E+00
    -10.938  0.0000E+00  0.0000E+00
    -10.883  0.0000E+00  0.0000E+00
    -10.829 -0.1806E-31 -0.9852E-33
    -10.774 -0.1150E-27 -0.6273E-29
    -10.720 -0.4018E-24 -0.2192E-25
    -10.665 -0.7699E-21 -0.4202E-22
    -10.611 -0.8082E-18 -0.4413E-19
    -10.556 -0.4499E-15 -0.2458E-16
    -10.502 -0.1400E-12 -0.7662E-14
    -10.447 -0.2367E-10 -0.1299E-11
    -10.393 -0.2161E-08 -0.1192E-09
    -10.338 -0.1056E-06 -0.5877E-08
    -10.283 -0.2711E-05 -0.1538E-06
    -10.229 -0.3536E-04 -0.2083E-05
    -10.174 -0.2137E-03 -0.1374E-04
    -10.120 -0.3921E-03 -0.3512E-04
    -10.065  0.1211E-02  0.3092E-04
    -10.011  0.5828E-02  0.3488E-03
     -9.956  0.8020E-02  0.7862E-03
     -9.902  0.4156E-02  0.1013E-02
     -9.847  0.3065E-03  0.1030E-02
     -9.793 -0.3966E-03  0.1008E-02
     -9.738 -0.1294E-03  0.1001E-02
     -9.683 -0.1628E-04  0.1000E-02
     -9.629 -0.1169E-05  0.1000E-02
     -9.574 -0.4761E-05  0.9997E-03
     -9.520 -0.6375E-04  0.9963E-03
     -9.465 -0.4009E-03  0.9744E-03
     -9.411 -0.8029E-03  0.9306E-03
     -9.356  0.2116E-02  0.1046E-02
     -9.302  0.1120E-01  0.1657E-02
     -9.247  0.1614E-01  0.2537E-02
     -9.193  0.8789E-02  0.3017E-02
     -9.138  0.8157E-03  0.3061E-02
     -9.083 -0.8063E-03  0.3017E-02
     -9.029 -0.2794E-03  0.3002E-02
     -8.974 -0.3650E-04  0.3000E-02
     -8.920 -0.2777E-05  0.3000E-02
     -8.865 -0.9353E-05  0.2999E-02
     -8.811 -0.8749E-04  0.2995E-02
     -8.756 -0.3465E-03  0.2976E-02
     -8.702 -0.7228E-04  0.2972E-02
     -8.647  0.3012E-02  0.3136E-02
     -8.593  0.7341E-02  0.3537E-02
     -8.538  0.6432E-02  0.3887E-02
     -8.483  0.3437E-02  0.4075E-02
     -8.429  0.5779E-02  0.4390E-02
     -8.374  0.7666E-02  0.4808E-02
     -8.320  0.3837E-02  0.5018E-02
     -8.265  0.1837E-03  0.5028E-02
     -8.211 -0.5412E-03  0.4998E-02
     -8.156 -0.7698E-03  0.4956E-02
     -8.102 -0.3161E-03  0.4939E-02
     -8.047  0.5418E-02  0.5234E-02
     -7.993  0.1452E-01  0.6026E-02
     -7.938  0.1347E-01  0.6761E-02
     -7.883  0.4531E-02  0.7008E-02
     -7.829  0.5434E-02  0.7304E-02
     -7.774  0.1441E-01  0.8090E-02
     -7.720  0.1366E-01  0.8835E-02
     -7.665  0.4239E-02  0.9066E-02
     -7.611 -0.8091E-03  0.9022E-02
     -7.556 -0.1350E-02  0.8949E-02
     -7.502  0.5237E-03  0.8977E-02
     -7.447  0.8206E-02  0.9425E-02
     -7.393  0.1579E-01  0.1029E-01
     -7.338  0.1135E-01  0.1091E-01
     -7.283  0.2481E-02  0.1104E-01
     -7.229  0.2274E-02  0.1116E-01
     -7.174  0.7116E-02  0.1155E-01
     -7.120  0.6752E-02  0.1192E-01
     -7.065  0.1978E-02  0.1203E-01
     -7.011 -0.7833E-03  0.1199E-01
     -6.956 -0.9791E-03  0.1193E-01
     -6.902  0.3183E-02  0.1211E-01
     -6.847  0.1248E-01  0.1279E-01
     -6.793  0.1477E-01  0.1359E-01
     -6.738  0.6757E-02  0.1396E-01
     -6.683  0.6796E-02  0.1433E-01
     -6.629  0.2010E-01  0.1543E-01
     -6.574  0.2754E-01  0.1693E-01
     -6.520  0.1690E-01  0.1785E-01
     -6.465  0.2512E-02  0.1799E-01
     -6.411  0.1564E-02  0.1807E-01
     -6.356  0.1626E-01  0.1896E-01
     -6.302  0.3683E-01  0.2097E-01
     -6.247  0.4512E-01  0.2343E-01
     -6.193  0.3263E-01  0.2521E-01
     -6.138  0.1769E-01  0.2618E-01
     -6.083  0.2085E-01  0.2731E-01
     -6.029  0.3462E-01  0.2920E-01
     -5.974  0.4830E-01  0.3184E-01
     -5.920  0.5695E-01  0.3494E-01
     -5.865  0.4861E-01  0.3759E-01
     -5.811  0.3794E-01  0.3966E-01
     -5.756  0.4374E-01  0.4205E-01
     -5.702  0.5096E-01  0.4483E-01
     -5.647  0.5653E-01  0.4791E-01
     -5.593  0.7350E-01  0.5192E-01
     -5.538  0.9390E-01  0.5704E-01
     -5.483  0.1032E+00  0.6267E-01
     -5.429  0.1021E+00  0.6824E-01
     -5.374  0.1011E+00  0.7375E-01
     -5.320  0.1023E+00  0.7933E-01
     -5.265  0.9904E-01  0.8473E-01
     -5.211  0.8440E-01  0.8933E-01
     -5.156  0.6288E-01  0.9276E-01
     -5.102  0.4622E-01  0.9529E-01
     -5.047  0.5511E-01  0.9829E-01
     -4.993  0.8189E-01  0.1028E+00
     -4.938  0.8563E-01  0.1074E+00
     -4.883  0.8124E-01  0.1119E+00
     -4.829  0.8497E-01  0.1165E+00
     -4.774  0.6777E-01  0.1202E+00
     -4.720  0.5752E-01  0.1233E+00
     -4.665  0.8433E-01  0.1279E+00
     -4.611  0.1086E+00  0.1339E+00
     -4.556  0.1003E+00  0.1393E+00
     -4.502  0.8845E-01  0.1441E+00
     -4.447  0.9851E-01  0.1495E+00
     -4.393  0.1154E+00  0.1558E+00
     -4.338  0.1366E+00  0.1633E+00
     -4.284  0.1557E+00  0.1718E+00
     -4.229  0.1448E+00  0.1797E+00
     -4.174  0.1159E+00  0.1860E+00
     -4.120  0.9243E-01  0.1910E+00
     -4.065  0.8079E-01  0.1954E+00
     -4.011  0.9362E-01  0.2005E+00
     -3.956  0.1177E+00  0.2070E+00
     -3.902  0.1238E+00  0.2137E+00
     -3.847  0.1285E+00  0.2207E+00
     -3.793  0.1370E+00  0.2282E+00
     -3.738  0.1277E+00  0.2352E+00
     -3.684  0.1235E+00  0.2419E+00
     -3.629  0.1316E+00  0.2491E+00
     -3.574  0.1290E+00  0.2561E+00
     -3.520  0.1406E+00  0.2638E+00
     -3.465  0.1681E+00  0.2730E+00
     -3.411  0.1565E+00  0.2815E+00
     -3.356  0.1303E+00  0.2886E+00
     -3.302  0.1544E+00  0.2970E+00
     -3.247  0.1893E+00  0.3073E+00
     -3.193  0.1835E+00  0.3174E+00
     -3.138  0.1701E+00  0.3266E+00
     -3.084  0.1748E+00  0.3362E+00
     -3.029  0.1700E+00  0.3454E+00
     -2.974  0.1219E+00  0.3521E+00
     -2.920  0.5428E-01  0.3550E+00
     -2.865  0.1977E-01  0.3561E+00
     -2.811  0.1495E-01  0.3569E+00
     -2.756  0.1810E-01  0.3579E+00
     -2.702  0.1938E-01  0.3590E+00
     -2.647  0.1342E-01  0.3597E+00
     -2.593  0.8231E-02  0.3602E+00
     -2.538  0.1200E-01  0.3608E+00
     -2.484  0.1786E-01  0.3618E+00
     -2.429  0.1692E-01  0.3627E+00
     -2.374  0.1445E-01  0.3635E+00
     -2.320  0.1632E-01  0.3644E+00
     -2.265  0.2287E-01  0.3656E+00
     -2.211  0.3303E-01  0.3674E+00
     -2.156  0.3182E-01  0.3692E+00
     -2.102  0.1530E-01  0.3700E+00
     -2.047  0.1573E-02  0.3701E+00
     -1.993 -0.1757E-02  0.3700E+00
     -1.938 -0.3259E-03  0.3700E+00
     -1.884  0.3906E-02  0.3702E+00
     -1.829  0.7937E-02  0.3706E+00
     -1.774  0.5703E-02  0.3709E+00
     -1.720  0.3804E-03  0.3710E+00
     -1.665 -0.5180E-03  0.3709E+00
     -1.611  0.7166E-02  0.3713E+00
     -1.556  0.2109E-01  0.3725E+00
     -1.502  0.2992E-01  0.3741E+00
     -1.447  0.2452E-01  0.3754E+00
     -1.393  0.1353E-01  0.3762E+00
     -1.338  0.1428E-01  0.3770E+00
     -1.284  0.1930E-01  0.3780E+00
     -1.229  0.1492E-01  0.3788E+00
     -1.174  0.9376E-02  0.3793E+00
     -1.120  0.1001E-01  0.3799E+00
     -1.065  0.1106E-01  0.3805E+00
     -1.011  0.7710E-02  0.3809E+00
     -0.956  0.2275E-02  0.3810E+00
     -0.902 -0.5551E-03  0.3810E+00
     -0.847 -0.1131E-02  0.3809E+00
     -0.793  0.4601E-03  0.3810E+00
     -0.738  0.7837E-02  0.3814E+00
     -0.684  0.1514E-01  0.3822E+00
     -0.629  0.1291E-01  0.3829E+00
     -0.574  0.1179E-01  0.3836E+00
     -0.520  0.1523E-01  0.3844E+00
     -0.465  0.1017E-01  0.3850E+00
     -0.411  0.1268E-02  0.3850E+00
     -0.356 -0.1595E-02  0.3849E+00
     -0.302  0.3370E-02  0.3851E+00
     -0.247  0.1479E-01  0.3859E+00
     -0.193  0.2026E-01  0.3870E+00
     -0.138  0.1516E-01  0.3879E+00
     -0.084  0.1624E-01  0.3887E+00
     -0.029  0.2354E-01  0.3900E+00
      0.026  0.2342E-01  0.3913E+00
      0.080  0.2389E-01  0.3926E+00
      0.135  0.2521E-01  0.3940E+00
      0.189  0.1614E-01  0.3949E+00
      0.244  0.3265E-02  0.3950E+00
      0.298 -0.1232E-02  0.3950E+00
      0.353  0.4881E-02  0.3952E+00
      0.407  0.1556E-01  0.3961E+00
      0.462  0.1858E-01  0.3971E+00
      0.516  0.1232E-01  0.3978E+00
      0.571  0.4469E-02  0.3980E+00
      0.626 -0.2158E-03  0.3980E+00
      0.680 -0.8289E-03  0.3980E+00
      0.735  0.2822E-02  0.3981E+00
      0.789  0.9798E-02  0.3987E+00
      0.844  0.1303E-01  0.3994E+00
      0.898  0.8787E-02  0.3998E+00
      0.953  0.7051E-02  0.4002E+00
      1.007  0.1356E-01  0.4010E+00
      1.062  0.1402E-01  0.4017E+00
      1.116  0.4891E-02  0.4020E+00
      1.171  0.1652E-02  0.4021E+00
      1.225  0.9052E-02  0.4026E+00
      1.280  0.1820E-01  0.4036E+00
      1.335  0.2065E-01  0.4047E+00
      1.389  0.2063E-01  0.4058E+00
      1.444  0.2193E-01  0.4070E+00
      1.498  0.1508E-01  0.4078E+00
      1.553  0.3247E-02  0.4080E+00
      1.607 -0.4979E-03  0.4080E+00
      1.662  0.6994E-02  0.4084E+00
      1.716  0.1716E-01  0.4093E+00
      1.771  0.1751E-01  0.4103E+00
      1.825  0.1192E-01  0.4109E+00
      1.880  0.1439E-01  0.4117E+00
      1.935  0.2527E-01  0.4131E+00
      1.989  0.2983E-01  0.4147E+00
      2.044  0.1954E-01  0.4158E+00
      2.098  0.5002E-02  0.4160E+00
      2.153  0.1004E-03  0.4161E+00
      2.207  0.5588E-02  0.4164E+00
      2.262  0.1262E-01  0.4170E+00
      2.316  0.1196E-01  0.4177E+00
      2.371  0.4757E-02  0.4180E+00
      2.425  0.1634E-02  0.4180E+00
      2.480  0.7906E-02  0.4185E+00
      2.535  0.1611E-01  0.4194E+00
      2.589  0.1953E-01  0.4204E+00
      2.644  0.1768E-01  0.4214E+00
      2.698  0.8927E-02  0.4219E+00
      2.753  0.4182E-02  0.4221E+00
      2.807  0.1520E-01  0.4229E+00
      2.862  0.2890E-01  0.4245E+00
      2.916  0.3122E-01  0.4262E+00
      2.971  0.2845E-01  0.4278E+00
      3.025  0.1910E-01  0.4288E+00
      3.080  0.4835E-02  0.4291E+00
      3.135 -0.7912E-03  0.4290E+00
      3.189  0.3395E-02  0.4292E+00
      3.244  0.1203E-01  0.4299E+00
      3.298  0.2277E-01  0.4311E+00
      3.353  0.2708E-01  0.4326E+00
      3.407  0.1806E-01  0.4336E+00
      3.462  0.1423E-01  0.4343E+00
      3.516  0.2986E-01  0.4360E+00
      3.571  0.4095E-01  0.4382E+00
      3.625  0.3557E-01  0.4402E+00
      3.680  0.2851E-01  0.4417E+00
      3.735  0.2192E-01  0.4429E+00
      3.789  0.1433E-01  0.4437E+00
      3.844  0.5760E-02  0.4440E+00
      3.898  0.1700E-02  0.4441E+00
      3.953  0.5027E-02  0.4444E+00
      4.007  0.7552E-02  0.4448E+00
      4.062  0.6626E-02  0.4451E+00
      4.116  0.7508E-02  0.4455E+00
      4.171  0.6221E-02  0.4459E+00
      4.225  0.1594E-02  0.4460E+00
      4.280  0.2544E-02  0.4461E+00
      4.335  0.1105E-01  0.4467E+00
      4.389  0.1521E-01  0.4475E+00
      4.444  0.8392E-02  0.4480E+00
      4.498  0.1021E-02  0.4481E+00
      4.553 -0.7088E-03  0.4480E+00
      4.607 -0.2856E-03  0.4480E+00
      4.662 -0.4242E-04  0.4480E+00
      4.716 -0.3056E-05  0.4480E+00
      4.771 -0.1143E-06  0.4480E+00
      4.825 -0.2280E-08  0.4480E+00
      4.880 -0.2454E-10  0.4480E+00
      4.935 -0.1434E-12  0.4480E+00
      4.989 -0.4600E-15  0.4480E+00
      5.044  0.0000E+00  0.4480E+00
      5.098  0.0000E+00  0.4480E+00
      5.153  0.0000E+00  0.4480E+00
      5.207  0.0000E+00  0.4480E+00
      5.262  0.0000E+00  0.4480E+00
      5.316  0.0000E+00  0.4480E+00
      5.371  0.0000E+00  0.4480E+00
