       N       E                     dE             d eps       ncg     rms          rms(c)
DAV:   1     0.150855023529E+04    0.15086E+04   -0.62969E+04  1792   0.135E+03
DAV:   2     0.755451321118E+02   -0.14330E+04   -0.13791E+04  1800   0.365E+02
DAV:   3    -0.605125904924E+02   -0.13606E+03   -0.12294E+03  2040   0.162E+02
DAV:   4    -0.691705018082E+02   -0.86579E+01   -0.85119E+01  2208   0.485E+01
DAV:   5    -0.693928400390E+02   -0.22234E+00   -0.22198E+00  2184   0.685E+00    0.286E+01
DAV:   6    -0.627114728312E+02    0.66814E+01   -0.15412E+02  1984   0.128E+02    0.155E+01
DAV:   7    -0.566702841941E+02    0.60412E+01   -0.30400E+01  2144   0.825E+01    0.450E+00
DAV:   8    -0.568399064652E+02   -0.16962E+00   -0.63772E+00  2256   0.435E+01    0.288E+00
DAV:   9    -0.568793012565E+02   -0.39395E-01   -0.18538E+00  2264   0.224E+01    0.268E+00
DAV:  10    -0.568400983123E+02    0.39203E-01   -0.80482E-01  2080   0.223E+01    0.183E+00
DAV:  11    -0.567748882004E+02    0.65210E-01   -0.57456E-01  2600   0.169E+01    0.651E-01
DAV:  12    -0.567669447912E+02    0.79434E-02   -0.22119E-01  2504   0.727E+00    0.294E-01
DAV:  13    -0.567705340337E+02   -0.35892E-02   -0.67702E-02  2040   0.313E+00    0.214E-01
DAV:  14    -0.567704530370E+02    0.80997E-04   -0.10617E-02  2096   0.180E+00    0.230E-01
DAV:  15    -0.567695239938E+02    0.92904E-03   -0.46188E-03  2048   0.100E+00    0.657E-02
DAV:  16    -0.567697154048E+02   -0.19141E-03   -0.20788E-03  2352   0.639E-01    0.108E-01
DAV:  17    -0.567696125594E+02    0.10285E-03   -0.16339E-03  2080   0.550E-01    0.433E-02
DAV:  18    -0.567698335690E+02   -0.22101E-03   -0.76821E-04  2176   0.377E-01    0.925E-02
DAV:  19    -0.567698524274E+02   -0.18858E-04   -0.94843E-04  1912   0.379E-01    0.211E-02
DAV:  20    -0.567701259977E+02   -0.27357E-03   -0.12234E-04  2288   0.163E-01    0.139E-02
DAV:  21    -0.567702283821E+02   -0.10238E-03   -0.18156E-05  2048   0.915E-02    0.836E-03
DAV:  22    -0.567704237123E+02   -0.19533E-03   -0.17679E-05  2304   0.538E-02    0.709E-03
DAV:  23    -0.567705740667E+02   -0.15035E-03   -0.98637E-06  2496   0.384E-02    0.359E-03
DAV:  24    -0.567706167053E+02   -0.42639E-04   -0.25970E-06  2368   0.249E-02    0.279E-03
DAV:  25    -0.567706732601E+02   -0.56555E-04   -0.27967E-06  2096   0.189E-02    0.525E-03
DAV:  26    -0.567706955641E+02   -0.22304E-04   -0.97258E-07  1984   0.152E-02    0.356E-03
DAV:  27    -0.567707087913E+02   -0.13227E-04   -0.12590E-06  1840   0.134E-02    0.178E-03
DAV:  28    -0.567707210623E+02   -0.12271E-04   -0.28637E-07  1232   0.770E-03    0.164E-03
DAV:  29    -0.567707266905E+02   -0.56282E-05   -0.11653E-07  1176   0.369E-03    0.156E-03
DAV:  30    -0.567707291022E+02   -0.24117E-05   -0.72206E-08  1104   0.338E-03    0.150E-03
DAV:  31    -0.567707310900E+02   -0.19878E-05   -0.56282E-08  1120   0.285E-03    0.149E-03
DAV:  32    -0.567707320778E+02   -0.98779E-06   -0.41507E-08  1104   0.185E-03    0.147E-03
DAV:  33    -0.567707322318E+02   -0.15393E-06   -0.13410E-08  1184   0.120E-03    0.146E-03
DAV:  34    -0.567707323565E+02   -0.12470E-06   -0.77016E-09  1040   0.108E-03    0.145E-03
DAV:  35    -0.567707323983E+02   -0.41840E-07   -0.74910E-09  1112   0.101E-03
   1 F= -.56770732E+02 E0= -.56765626E+02  d E =-.567707E+02
       N       E                     dE             d eps       ncg     rms          rms(c)
DAV:   1    -0.568461975765E+02   -0.75465E-01   -0.63852E+00  1824   0.706E+00    0.330E-01
DAV:   2    -0.568599265867E+02   -0.13729E-01   -0.14475E-01  2640   0.285E+00    0.315E-01
DAV:   3    -0.568596267271E+02    0.29986E-03   -0.78341E-03  2032   0.185E+00    0.192E-01
DAV:   4    -0.568597653563E+02   -0.13863E-03   -0.36812E-03  2016   0.147E+00    0.131E-01
DAV:   5    -0.568598345988E+02   -0.69243E-04   -0.60554E-03  2096   0.190E+00    0.988E-02
DAV:   6    -0.568595137293E+02    0.32087E-03   -0.27020E-03  2304   0.135E+00    0.222E-02
DAV:   7    -0.568595207611E+02   -0.70319E-05   -0.34126E-04  2736   0.291E-01    0.134E-02
DAV:   8    -0.568595238960E+02   -0.31349E-05   -0.81702E-05  2000   0.103E-01    0.973E-03
DAV:   9    -0.568595239233E+02   -0.27350E-07   -0.19583E-05  1968   0.715E-02    0.627E-03
DAV:  10    -0.568595236511E+02    0.27228E-06   -0.57869E-06  3248   0.389E-02    0.294E-03
DAV:  11    -0.568595235641E+02    0.86970E-07   -0.32391E-06  2496   0.300E-02    0.195E-03
DAV:  12    -0.568595237940E+02   -0.22989E-06   -0.96760E-07  1936   0.164E-02    0.189E-03
DAV:  13    -0.568595239400E+02   -0.14607E-06   -0.18119E-07  1072   0.853E-03    0.164E-03
DAV:  14    -0.568595243058E+02   -0.36574E-06   -0.14862E-07  1104   0.713E-03    0.146E-03
DAV:  15    -0.568595245532E+02   -0.24741E-06   -0.46376E-08  1104   0.308E-03    0.143E-03
DAV:  16    -0.568595247372E+02   -0.18403E-06   -0.21959E-08  1072   0.194E-03    0.141E-03
DAV:  17    -0.568595251128E+02   -0.37555E-06   -0.20152E-08  1072   0.148E-03    0.140E-03
DAV:  18    -0.568595255302E+02   -0.41743E-06   -0.13898E-08  1072   0.143E-03    0.140E-03
DAV:  19    -0.568595257630E+02   -0.23274E-06   -0.13444E-08  1120   0.101E-03    0.140E-03
DAV:  20    -0.568595258276E+02   -0.64621E-07   -0.53845E-09  1104   0.753E-04
   2 F= -.56859526E+02 E0= -.56854626E+02  d E =-.887934E-01
       N       E                     dE             d eps       ncg     rms          rms(c)
DAV:   1    -0.569152012355E+02   -0.55675E-01   -0.19835E+01  1808   0.125E+01    0.565E-01
DAV:   2    -0.569658033125E+02   -0.50602E-01   -0.54257E-01  2656   0.650E+00    0.646E-01
DAV:   3    -0.569625721562E+02    0.32312E-02   -0.28068E-02  2096   0.394E+00    0.341E-01
DAV:   4    -0.569629196183E+02   -0.34746E-03   -0.12342E-02  2464   0.219E+00    0.261E-01
DAV:   5    -0.569632870552E+02   -0.36744E-03   -0.21432E-02  1984   0.362E+00    0.208E-01
DAV:   6    -0.569620844565E+02    0.12026E-02   -0.86728E-03  2288   0.246E+00    0.458E-02
DAV:   7    -0.569621817934E+02   -0.97337E-04   -0.15172E-03  2576   0.492E-01    0.334E-02
DAV:   8    -0.569621858909E+02   -0.40975E-05   -0.31453E-04  1984   0.237E-01    0.246E-02
DAV:   9    -0.569621828244E+02    0.30665E-05   -0.89032E-05  2048   0.151E-01    0.135E-02
DAV:  10    -0.569621808335E+02    0.19909E-05   -0.31141E-05  3392   0.969E-02    0.488E-03
DAV:  11    -0.569621800339E+02    0.79961E-06   -0.14416E-05  2752   0.664E-02    0.301E-03
DAV:  12    -0.569621805835E+02   -0.54957E-06   -0.36957E-06  1968   0.317E-02    0.270E-03
DAV:  13    -0.569621809019E+02   -0.31844E-06   -0.10216E-06  1888   0.195E-02    0.181E-03
DAV:  14    -0.569621815224E+02   -0.62052E-06   -0.34608E-07  1520   0.101E-02    0.140E-03
DAV:  15    -0.569621823008E+02   -0.77844E-06   -0.66322E-08  1104   0.388E-03    0.139E-03
DAV:  16    -0.569621827729E+02   -0.47204E-06   -0.50574E-08  1168   0.345E-03    0.133E-03
DAV:  17    -0.569621834991E+02   -0.72623E-06   -0.25424E-08  1072   0.232E-03    0.131E-03
DAV:  18    -0.569621845783E+02   -0.10792E-05   -0.45431E-08  1088   0.225E-03    0.131E-03
DAV:  19    -0.569621850341E+02   -0.45586E-06   -0.22774E-08  1152   0.155E-03    0.130E-03
DAV:  20    -0.569621852955E+02   -0.26141E-06   -0.10355E-08  1040   0.109E-03    0.129E-03
DAV:  21    -0.569621856089E+02   -0.31333E-06   -0.77565E-09  1072   0.689E-04    0.129E-03
DAV:  22    -0.569621857721E+02   -0.16320E-06   -0.41071E-09  1088   0.625E-04    0.129E-03
DAV:  23    -0.569621858537E+02   -0.81625E-07   -0.18726E-09  1024   0.395E-04
   3 F= -.56962186E+02 E0= -.56957648E+02  d E =-.102660E+00
       N       E                     dE             d eps       ncg     rms          rms(c)
DAV:   1    -0.569441833188E+02    0.18002E-01   -0.29578E+01  1808   0.153E+01    0.602E-01
DAV:   2    -0.570215050183E+02   -0.77322E-01   -0.82630E-01  2640   0.770E+00    0.751E-01
DAV:   3    -0.570169076001E+02    0.45974E-02   -0.38115E-02  2128   0.434E+00    0.389E-01
DAV:   4    -0.570170311416E+02   -0.12354E-03   -0.13924E-02  2432   0.230E+00    0.323E-01
DAV:   5    -0.570170711370E+02   -0.39995E-04   -0.20878E-02  1984   0.357E+00    0.225E-01
DAV:   6    -0.570159193877E+02    0.11517E-02   -0.98046E-03  2368   0.254E+00    0.753E-02
DAV:   7    -0.570160652610E+02   -0.14587E-03   -0.25228E-03  2560   0.696E-01    0.454E-02
DAV:   8    -0.570160667881E+02   -0.15271E-05   -0.51117E-04  2000   0.279E-01    0.376E-02
DAV:   9    -0.570160570850E+02    0.97031E-05   -0.15596E-04  1952   0.211E-01    0.199E-02
DAV:  10    -0.570160509592E+02    0.61258E-05   -0.66634E-05  3456   0.159E-01    0.720E-03
DAV:  11    -0.570160492407E+02    0.17185E-05   -0.24305E-05  2720   0.950E-02    0.376E-03
DAV:  12    -0.570160495952E+02   -0.35450E-06   -0.46136E-06  2016   0.332E-02    0.297E-03
DAV:  13    -0.570160497756E+02   -0.18041E-06   -0.14495E-06  1888   0.234E-02    0.165E-03
DAV:  14    -0.570160504203E+02   -0.64463E-06   -0.23566E-07  1136   0.756E-03    0.152E-03
DAV:  15    -0.570160509883E+02   -0.56804E-06   -0.11978E-07  1120   0.586E-03    0.146E-03
DAV:  16    -0.570160515153E+02   -0.52702E-06   -0.68350E-08  1088   0.411E-03    0.142E-03
DAV:  17    -0.570160522564E+02   -0.74106E-06   -0.38976E-08  1088   0.199E-03    0.139E-03
DAV:  18    -0.570160531153E+02   -0.85892E-06   -0.49189E-08  1088   0.274E-03    0.138E-03
DAV:  19    -0.570160534216E+02   -0.30626E-06   -0.22961E-08  1184   0.150E-03    0.138E-03
DAV:  20    -0.570160537803E+02   -0.35878E-06   -0.13710E-08  1072   0.149E-03    0.136E-03
DAV:  21    -0.570160540869E+02   -0.30654E-06   -0.95886E-09  1072   0.650E-04    0.136E-03
DAV:  22    -0.570160541234E+02   -0.36496E-07   -0.38844E-09  1168   0.595E-04
   4 F= -.57016054E+02 E0= -.57011853E+02  d E =-.538683E-01
       N       E                     dE             d eps       ncg     rms          rms(c)
DAV:   1    -0.569978646657E+02    0.18189E-01   -0.15422E+01  1856   0.118E+01    0.298E-01
DAV:   2    -0.570331237112E+02   -0.35259E-01   -0.36857E-01  2640   0.407E+00    0.396E-01
DAV:   3    -0.570319439228E+02    0.11798E-02   -0.12309E-02  2096   0.204E+00    0.223E-01
DAV:   4    -0.570317931495E+02    0.15077E-03   -0.33921E-03  2176   0.125E+00    0.201E-01
DAV:   5    -0.570315003479E+02    0.29280E-03   -0.36159E-03  2152   0.141E+00    0.129E-01
DAV:   6    -0.570312833546E+02    0.21699E-03   -0.35875E-03  2960   0.139E+00    0.815E-02
DAV:   7    -0.570312062983E+02    0.77056E-04   -0.13010E-03  2784   0.746E-01    0.245E-02
DAV:   8    -0.570312228266E+02   -0.16528E-04   -0.33292E-04  2048   0.213E-01    0.270E-02
DAV:   9    -0.570312202140E+02    0.26126E-05   -0.94710E-05  1952   0.119E-01    0.171E-02
DAV:  10    -0.570312164753E+02    0.37388E-05   -0.72778E-05  2448   0.147E-01    0.102E-02
DAV:  11    -0.570312148650E+02    0.16103E-05   -0.16037E-05  2288   0.828E-02    0.340E-03
DAV:  12    -0.570312150005E+02   -0.13553E-06   -0.18502E-06  2184   0.232E-02    0.347E-03
DAV:  13    -0.570312149119E+02    0.88570E-07   -0.76415E-07  1888   0.148E-02
   5 F= -.57031215E+02 E0= -.57026739E+02  d E =-.151608E-01
       N       E                     dE             d eps       ncg     rms          rms(c)
DAV:   1    -0.570242590017E+02    0.69560E-02   -0.63876E+00  1856   0.787E+00    0.163E-01
DAV:   2    -0.570365741522E+02   -0.12315E-01   -0.12799E-01  2640   0.220E+00    0.229E-01
DAV:   3    -0.570359996108E+02    0.57454E-03   -0.29249E-03  2000   0.864E-01    0.138E-01
DAV:   4    -0.570358799764E+02    0.11963E-03   -0.60669E-04  2320   0.393E-01    0.120E-01
DAV:   5    -0.570357357162E+02    0.14426E-03   -0.62842E-04  2120   0.638E-01    0.832E-02
DAV:   6    -0.570356646473E+02    0.71069E-04   -0.18641E-03  3424   0.876E-01    0.563E-02
DAV:   7    -0.570355720288E+02    0.92619E-04   -0.67841E-04  2976   0.641E-01    0.160E-02
DAV:   8    -0.570355842236E+02   -0.12195E-04   -0.15264E-04  2096   0.102E-01    0.158E-02
DAV:   9    -0.570355836068E+02    0.61687E-06   -0.12799E-05  1984   0.430E-02    0.130E-02
DAV:  10    -0.570355817659E+02    0.18409E-05   -0.26409E-06  2736   0.279E-02    0.856E-03
DAV:  11    -0.570355814972E+02    0.26872E-06   -0.10042E-05  2608   0.279E-02    0.383E-03
DAV:  12    -0.570355815089E+02   -0.11729E-07   -0.94697E-07  1968   0.186E-02
   6 F= -.57035582E+02 E0= -.57030897E+02  d E =-.436660E-02
       N       E                     dE             d eps       ncg     rms          rms(c)
DAV:   1    -0.570304274121E+02    0.51541E-02   -0.36081E+00  1856   0.592E+00    0.121E-01
DAV:   2    -0.570373438643E+02   -0.69165E-02   -0.71903E-02  2656   0.155E+00    0.146E-01
DAV:   3    -0.570371217113E+02    0.22215E-03   -0.18294E-03  1952   0.552E-01    0.104E-01
DAV:   4    -0.570370832951E+02    0.38416E-04   -0.68418E-04  2032   0.635E-01    0.892E-02
DAV:   5    -0.570369573053E+02    0.12599E-03   -0.50994E-04  2976   0.528E-01    0.639E-02
DAV:   6    -0.570369232217E+02    0.34084E-04   -0.70161E-04  3312   0.621E-01    0.376E-02
DAV:   7    -0.570368743884E+02    0.48833E-04   -0.32797E-04  3208   0.381E-01    0.102E-02
DAV:   8    -0.570368791773E+02   -0.47890E-05   -0.64253E-05  2216   0.683E-02    0.997E-03
DAV:   9    -0.570368796776E+02   -0.50025E-06   -0.12105E-05  1984   0.348E-02    0.894E-03
DAV:  10    -0.570368788130E+02    0.86463E-06   -0.18917E-06  2176   0.195E-02    0.606E-03
DAV:  11    -0.570368787516E+02    0.61387E-07   -0.29033E-06  2688   0.268E-02    0.302E-03
DAV:  12    -0.570368787923E+02   -0.40709E-07   -0.81329E-07  1968   0.203E-02
   7 F= -.57036879E+02 E0= -.57032107E+02  d E =-.129728E-02
       N       E                     dE             d eps       ncg     rms          rms(c)
DAV:   1    -0.570374194841E+02   -0.54073E-03   -0.27577E-01  1856   0.164E+00    0.402E-02
DAV:   2    -0.570378915063E+02   -0.47202E-03   -0.49781E-03  2640   0.424E-01    0.365E-02
DAV:   3    -0.570378829536E+02    0.85527E-05   -0.11086E-04  2192   0.198E-01    0.279E-02
DAV:   4    -0.570378785899E+02    0.43637E-05   -0.47464E-05  2032   0.180E-01    0.217E-02
DAV:   5    -0.570378807507E+02   -0.21608E-05   -0.97787E-05  2240   0.260E-01    0.184E-02
DAV:   6    -0.570378709143E+02    0.98364E-05   -0.80398E-05  2816   0.225E-01    0.519E-03
DAV:   7    -0.570378713832E+02   -0.46892E-06   -0.16433E-05  2992   0.482E-02    0.355E-03
DAV:   8    -0.570378714850E+02   -0.10179E-06   -0.21345E-06  2064   0.124E-02    0.325E-03
DAV:   9    -0.570378714005E+02    0.84525E-07   -0.11270E-07  1024   0.515E-03
   8 F= -.57037871E+02 E0= -.57033031E+02  d E =-.992608E-03
       N       E                     dE             d eps       ncg     rms          rms(c)
DAV:   1    -0.570381459171E+02   -0.27443E-03   -0.12049E-01  1856   0.109E+00    0.199E-02
DAV:   2    -0.570383557248E+02   -0.20981E-03   -0.21955E-03  2624   0.284E-01    0.232E-02
DAV:   3    -0.570383540003E+02    0.17245E-05   -0.10643E-04  1952   0.188E-01    0.192E-02
DAV:   4    -0.570383517401E+02    0.22602E-05   -0.24030E-05  1936   0.117E-01    0.154E-02
DAV:   5    -0.570383482749E+02    0.34652E-05   -0.13427E-05  3192   0.555E-02    0.101E-02
DAV:   6    -0.570383468836E+02    0.13912E-05   -0.10711E-05  2664   0.871E-02    0.679E-03
DAV:   7    -0.570383462228E+02    0.66081E-06   -0.49718E-06  2616   0.468E-02    0.364E-03
DAV:   8    -0.570383461689E+02    0.53955E-07   -0.13350E-06  2336   0.229E-02    0.184E-03
DAV:   9    -0.570383462223E+02   -0.53376E-07   -0.53271E-07  1664   0.746E-03
   9 F= -.57038346E+02 E0= -.57033491E+02  d E =-.474822E-03
       N       E                     dE             d eps       ncg     rms          rms(c)
DAV:   1    -0.570392630204E+02   -0.91685E-03   -0.12681E-01  1856   0.108E+00    0.191E-02
DAV:   2    -0.570394797296E+02   -0.21671E-03   -0.22475E-03  2624   0.281E-01    0.219E-02
DAV:   3    -0.570394775166E+02    0.22130E-05   -0.79457E-05  2040   0.156E-01    0.178E-02
DAV:   4    -0.570394756653E+02    0.18513E-05   -0.20691E-05  1984   0.109E-01    0.149E-02
DAV:   5    -0.570394719018E+02    0.37635E-05   -0.12015E-05  3288   0.565E-02    0.920E-03
DAV:   6    -0.570394704029E+02    0.14988E-05   -0.10602E-05  3192   0.753E-02    0.557E-03
DAV:   7    -0.570394698942E+02    0.50874E-06   -0.35441E-06  2280   0.443E-02    0.293E-03
DAV:   8    -0.570394698964E+02   -0.21864E-08   -0.11060E-06  2000   0.179E-02    0.172E-03
DAV:   9    -0.570394699278E+02   -0.31392E-07   -0.41782E-07  1608   0.655E-03
  10 F= -.57039470E+02 E0= -.57034585E+02  d E =-.112371E-02
       N       E                     dE             d eps       ncg     rms          rms(c)
DAV:   1    -0.570398108370E+02   -0.34094E-03   -0.13309E-01  1856   0.114E+00    0.209E-02
DAV:   2    -0.570400429682E+02   -0.23213E-03   -0.24339E-03  2624   0.298E-01    0.248E-02
DAV:   3    -0.570400404625E+02    0.25057E-05   -0.11807E-04  1936   0.199E-01    0.203E-02
DAV:   4    -0.570400380356E+02    0.24269E-05   -0.26966E-05  1968   0.123E-01    0.164E-02
DAV:   5    -0.570400335908E+02    0.44448E-05   -0.14944E-05  3104   0.549E-02    0.105E-02
DAV:   6    -0.570400319022E+02    0.16886E-05   -0.11407E-05  2816   0.872E-02    0.680E-03
DAV:   7    -0.570400311515E+02    0.75073E-06   -0.48762E-06  2472   0.503E-02    0.349E-03
DAV:   8    -0.570400311012E+02    0.50222E-07   -0.15044E-06  2392   0.228E-02    0.182E-03
DAV:   9    -0.570400311469E+02   -0.45671E-07   -0.54243E-07  1680   0.740E-03
  11 F= -.57040031E+02 E0= -.57035116E+02  d E =-.561219E-03
       N       E                     dE             d eps       ncg     rms          rms(c)
DAV:   1    -0.570402924762E+02   -0.26137E-03   -0.15863E-01  1856   0.124E+00    0.230E-02
DAV:   2    -0.570405740721E+02   -0.28160E-03   -0.29582E-03  2624   0.331E-01    0.275E-02
DAV:   3    -0.570405711651E+02    0.29069E-05   -0.15424E-04  1952   0.228E-01    0.223E-02
DAV:   4    -0.570405682348E+02    0.29303E-05   -0.34170E-05  1952   0.137E-01    0.179E-02
DAV:   5    -0.570405631693E+02    0.50655E-05   -0.17774E-05  3128   0.605E-02    0.116E-02
DAV:   6    -0.570405612136E+02    0.19557E-05   -0.13250E-05  2632   0.964E-02    0.743E-03
DAV:   7    -0.570405603036E+02    0.91003E-06   -0.64281E-06  2584   0.554E-02    0.366E-03
DAV:   8    -0.570405602633E+02    0.40236E-07   -0.18098E-06  2616   0.240E-02    0.193E-03
DAV:   9    -0.570405603087E+02   -0.45336E-07   -0.61815E-07  1784   0.810E-03
  12 F= -.57040560E+02 E0= -.57035613E+02  d E =-.529162E-03
       N       E                     dE             d eps       ncg     rms          rms(c)
DAV:   1    -0.570407673653E+02   -0.20710E-03   -0.18375E-01  1848   0.133E+00    0.249E-02
DAV:   2    -0.570411004272E+02   -0.33306E-03   -0.35045E-03  2624   0.363E-01    0.299E-02
DAV:   3    -0.570410972894E+02    0.31378E-05   -0.19389E-04  1968   0.256E-01    0.241E-02
DAV:   4    -0.570410938033E+02    0.34861E-05   -0.42155E-05  1936   0.152E-01    0.190E-02
DAV:   5    -0.570410882868E+02    0.55165E-05   -0.20402E-05  3168   0.656E-02    0.127E-02
DAV:   6    -0.570410859951E+02    0.22917E-05   -0.14929E-05  2480   0.104E-01    0.796E-03
DAV:   7    -0.570410849863E+02    0.10088E-05   -0.80100E-06  2696   0.598E-02    0.374E-03
DAV:   8    -0.570410849594E+02    0.26863E-07   -0.20639E-06  2744   0.246E-02    0.203E-03
DAV:   9    -0.570410850097E+02   -0.50240E-07   -0.67602E-07  1856   0.877E-03
  13 F= -.57041085E+02 E0= -.57036103E+02  d E =-.524701E-03
       N       E                     dE             d eps       ncg     rms          rms(c)
DAV:   1    -0.570412458770E+02   -0.16092E-03   -0.20632E-01  1848   0.141E+00    0.266E-02
DAV:   2    -0.570416220241E+02   -0.37615E-03   -0.39645E-03  2624   0.388E-01    0.320E-02
DAV:   3    -0.570416185300E+02    0.34942E-05   -0.23143E-04  1968   0.281E-01    0.257E-02
DAV:   4    -0.570416144904E+02    0.40396E-05   -0.49240E-05  1936   0.163E-01    0.200E-02
DAV:   5    -0.570416084101E+02    0.60802E-05   -0.22885E-05  3136   0.693E-02    0.135E-02
DAV:   6    -0.570416057078E+02    0.27024E-05   -0.16622E-05  2368   0.111E-01    0.843E-03
DAV:   7    -0.570416045322E+02    0.11756E-05   -0.95297E-06  2688   0.639E-02    0.382E-03
DAV:   8    -0.570416045365E+02   -0.43729E-08   -0.24055E-06  2792   0.255E-02    0.211E-03
DAV:   9    -0.570416045787E+02   -0.42179E-07   -0.72746E-07  1888   0.938E-03
  14 F= -.57041605E+02 E0= -.57036584E+02  d E =-.519569E-03
       N       E                     dE             d eps       ncg     rms          rms(c)
DAV:   1    -0.570416908407E+02   -0.86304E-04   -0.22709E-01  1840   0.147E+00    0.282E-02
DAV:   2    -0.570421162341E+02   -0.42539E-03   -0.44859E-03  2624   0.417E-01    0.340E-02
DAV:   3    -0.570421130235E+02    0.32106E-05   -0.27919E-04  1984   0.309E-01    0.271E-02
DAV:   4    -0.570421084672E+02    0.45563E-05   -0.58768E-05  1936   0.177E-01    0.208E-02
DAV:   5    -0.570421021541E+02    0.63131E-05   -0.25626E-05  3056   0.745E-02    0.144E-02
DAV:   6    -0.570420988716E+02    0.32825E-05   -0.17808E-05  2224   0.117E-01    0.898E-03
DAV:   7    -0.570420974868E+02    0.13847E-05   -0.11386E-05  2728   0.670E-02    0.384E-03
DAV:   8    -0.570420975299E+02   -0.43012E-07   -0.27251E-06  3000   0.254E-02    0.221E-03
DAV:   9    -0.570420975847E+02   -0.54824E-07   -0.76348E-07  1936   0.985E-03
  15 F= -.57042098E+02 E0= -.57037043E+02  d E =-.493006E-03
       N       E                     dE             d eps       ncg     rms          rms(c)
DAV:   1    -0.570422182032E+02   -0.12067E-03   -0.23224E-01  1840   0.149E+00    0.289E-02
DAV:   2    -0.570426374931E+02   -0.41929E-03   -0.44336E-03  2624   0.415E-01    0.341E-02
DAV:   3    -0.570426333146E+02    0.41785E-05   -0.27764E-04  1928   0.312E-01    0.276E-02
DAV:   4    -0.570426281751E+02    0.51395E-05   -0.58234E-05  1976   0.174E-01    0.209E-02
DAV:   5    -0.570426217661E+02    0.64090E-05   -0.25634E-05  3072   0.732E-02    0.142E-02
DAV:   6    -0.570426183406E+02    0.34255E-05   -0.19242E-05  2352   0.120E-01    0.865E-03
DAV:   7    -0.570426169801E+02    0.13605E-05   -0.10855E-05  2688   0.687E-02    0.370E-03
DAV:   8    -0.570426170331E+02   -0.52994E-07   -0.26697E-06  2872   0.259E-02    0.214E-03
DAV:   9    -0.570426170881E+02   -0.54992E-07   -0.72888E-07  1968   0.101E-02
  16 F= -.57042617E+02 E0= -.57037512E+02  d E =-.519503E-03
       N       E                     dE             d eps       ncg     rms          rms(c)
DAV:   1    -0.570425279950E+02    0.89038E-04   -0.11891E-01  1840   0.102E+00    0.240E-02
DAV:   2    -0.570427716215E+02   -0.24363E-03   -0.25668E-03  2624   0.319E-01    0.250E-02
DAV:   3    -0.570427730161E+02   -0.13946E-05   -0.14822E-04  2080   0.224E-01    0.194E-02
DAV:   4    -0.570427704659E+02    0.25502E-05   -0.45551E-05  1984   0.173E-01    0.150E-02
DAV:   5    -0.570427674575E+02    0.30084E-05   -0.19742E-05  3216   0.888E-02    0.948E-03
DAV:   6    -0.570427663583E+02    0.10992E-05   -0.10859E-05  2320   0.898E-02    0.620E-03
DAV:   7    -0.570427656587E+02    0.69964E-06   -0.52617E-06  2528   0.466E-02    0.246E-03
DAV:   8    -0.570427656962E+02   -0.37515E-07   -0.13982E-06  2464   0.176E-02    0.163E-03
DAV:   9    -0.570427657291E+02   -0.32909E-07   -0.53199E-07  1728   0.740E-03
  17 F= -.57042766E+02 E0= -.57037677E+02  d E =-.148641E-03
       N       E                     dE             d eps       ncg     rms          rms(c)
DAV:   1    -0.570428173797E+02   -0.51683E-04   -0.72662E-04  1792   0.837E-02    0.224E-03
DAV:   2    -0.570428185873E+02   -0.12077E-05   -0.13510E-05  2656   0.219E-02    0.216E-03
DAV:   3    -0.570428185471E+02    0.40218E-07   -0.17754E-07  1088   0.943E-03
  18 F= -.57042819E+02 E0= -.57037724E+02  d E =-.528180E-04
       N       E                     dE             d eps       ncg     rms          rms(c)
DAV:   1    -0.570429186718E+02   -0.10008E-03   -0.24501E-03  1840   0.153E-01    0.433E-03
DAV:   2    -0.570429225759E+02   -0.39040E-05   -0.43599E-05  2704   0.404E-02    0.391E-03
DAV:   3    -0.570429225225E+02    0.53322E-07   -0.14357E-06  1984   0.248E-02    0.321E-03
DAV:   4    -0.570429224237E+02    0.98848E-07   -0.82222E-07  1232   0.247E-02
  19 F= -.57042922E+02 E0= -.57037820E+02  d E =-.103877E-03
       N       E                     dE             d eps       ncg     rms          rms(c)
DAV:   1    -0.570430544653E+02   -0.13194E-03   -0.43847E-03  1808   0.207E-01    0.545E-03
DAV:   2    -0.570430617755E+02   -0.73102E-05   -0.83121E-05  2640   0.611E-02    0.473E-03
DAV:   3    -0.570430620612E+02   -0.28580E-06   -0.11471E-05  1952   0.669E-02    0.542E-03
DAV:   4    -0.570430617298E+02    0.33142E-06   -0.21809E-06  1984   0.335E-02    0.324E-03
DAV:   5    -0.570430616457E+02    0.84121E-07   -0.94731E-07  2224   0.184E-02
  20 F= -.57043062E+02 E0= -.57037948E+02  d E =-.139222E-03
       N       E                     dE             d eps       ncg     rms          rms(c)
DAV:   1    -0.570432059354E+02   -0.14421E-03   -0.56637E-03  1840   0.235E-01    0.531E-03
DAV:   2    -0.570432153919E+02   -0.94565E-05   -0.10247E-04  2624   0.603E-02    0.512E-03
DAV:   3    -0.570432152848E+02    0.10701E-06   -0.38436E-06  2040   0.381E-02    0.393E-03
DAV:   4    -0.570432151790E+02    0.10583E-06   -0.95177E-07  1784   0.250E-02    0.319E-03
DAV:   5    -0.570432150452E+02    0.13382E-06   -0.20185E-06  1136   0.311E-02    0.260E-03
DAV:   6    -0.570432147546E+02    0.29055E-06   -0.15846E-06  1832   0.280E-02    0.149E-03
DAV:   7    -0.570432147867E+02   -0.32043E-07   -0.53256E-07  1864   0.570E-03
  21 F= -.57043215E+02 E0= -.57038089E+02  d E =-.153141E-03
       N       E                     dE             d eps       ncg     rms          rms(c)
DAV:   1    -0.570433431356E+02   -0.12838E-03   -0.54663E-03  1840   0.226E-01    0.450E-03
DAV:   2    -0.570433528386E+02   -0.97030E-05   -0.10497E-04  2656   0.740E-02    0.560E-03
DAV:   3    -0.570433528292E+02    0.93751E-08   -0.99691E-06  1992   0.633E-02    0.414E-03
DAV:   4    -0.570433526852E+02    0.14405E-06   -0.18571E-06  1960   0.261E-02    0.308E-03
DAV:   5    -0.570433524763E+02    0.20894E-06   -0.45876E-07  1504   0.954E-03    0.243E-03
DAV:   6    -0.570433522417E+02    0.23452E-06   -0.73192E-07  2000   0.150E-02    0.138E-03
DAV:   7    -0.570433521882E+02    0.53500E-07   -0.18814E-07  1056   0.982E-03
  22 F= -.57043352E+02 E0= -.57038221E+02  d E =-.137402E-03
       N       E                     dE             d eps       ncg     rms          rms(c)
DAV:   1    -0.570434833591E+02   -0.13112E-03   -0.68234E-03  1840   0.254E-01    0.492E-03
DAV:   2    -0.570434954430E+02   -0.12084E-04   -0.13014E-04  2624   0.755E-02    0.593E-03
DAV:   3    -0.570434954290E+02    0.14054E-07   -0.99767E-06  1984   0.614E-02    0.466E-03
DAV:   4    -0.570434952263E+02    0.20262E-06   -0.19370E-06  1968   0.297E-02    0.352E-03
DAV:   5    -0.570434949139E+02    0.31242E-06   -0.63386E-07  1968   0.123E-02    0.266E-03
DAV:   6    -0.570434946650E+02    0.24892E-06   -0.69016E-07  1968   0.188E-02    0.169E-03
DAV:   7    -0.570434945805E+02    0.84521E-07   -0.22454E-07  1056   0.108E-02
  23 F= -.57043495E+02 E0= -.57038357E+02  d E =-.142392E-03
       N       E                     dE             d eps       ncg     rms          rms(c)
DAV:   1    -0.570436158986E+02   -0.12123E-03   -0.82113E-03  1856   0.278E-01    0.539E-03
DAV:   2    -0.570436308001E+02   -0.14902E-04   -0.16038E-04  2624   0.810E-02    0.630E-03
DAV:   3    -0.570436307987E+02    0.13970E-08   -0.11628E-05  1984   0.649E-02    0.516E-03
DAV:   4    -0.570436305511E+02    0.24760E-06   -0.23517E-06  1936   0.344E-02    0.381E-03
DAV:   5    -0.570436302105E+02    0.34062E-06   -0.84366E-07  2208   0.139E-02    0.290E-03
DAV:   6    -0.570436299311E+02    0.27939E-06   -0.70658E-07  1888   0.212E-02    0.191E-03
DAV:   7    -0.570436298228E+02    0.10837E-06   -0.27664E-07  1088   0.119E-02    0.115E-03
DAV:   8    -0.570436298181E+02    0.46348E-08   -0.99640E-08  1064   0.464E-03
  24 F= -.57043630E+02 E0= -.57038486E+02  d E =-.135238E-03
       N       E                     dE             d eps       ncg     rms          rms(c)
DAV:   1    -0.570437164995E+02   -0.86677E-04   -0.94855E-03  1856   0.299E-01    0.583E-03
DAV:   2    -0.570437337182E+02   -0.17219E-04   -0.18559E-04  2640   0.916E-02    0.717E-03
DAV:   3    -0.570437336487E+02    0.69569E-07   -0.14930E-05  1992   0.749E-02    0.547E-03
DAV:   4    -0.570437334077E+02    0.24099E-06   -0.29409E-06  1976   0.364E-02    0.408E-03
DAV:   5    -0.570437330635E+02    0.34422E-06   -0.10044E-06  2352   0.157E-02    0.315E-03
DAV:   6    -0.570437327287E+02    0.33475E-06   -0.73158E-07  1840   0.225E-02    0.187E-03
DAV:   7    -0.570437326046E+02    0.12416E-06   -0.37200E-07  1104   0.135E-02    0.107E-03
DAV:   8    -0.570437326073E+02   -0.27430E-08   -0.15260E-07  1072   0.359E-03
  25 F= -.57043733E+02 E0= -.57038581E+02  d E =-.102789E-03
       N       E                     dE             d eps       ncg     rms          rms(c)
DAV:   1    -0.570437954259E+02   -0.62821E-04   -0.10727E-02  1864   0.317E-01    0.621E-03
DAV:   2    -0.570438150112E+02   -0.19585E-04   -0.21111E-04  2640   0.979E-02    0.764E-03
DAV:   3    -0.570438149099E+02    0.10125E-06   -0.17221E-05  1984   0.801E-02    0.582E-03
DAV:   4    -0.570438146424E+02    0.26747E-06   -0.33899E-06  1976   0.391E-02    0.429E-03
DAV:   5    -0.570438142980E+02    0.34442E-06   -0.11567E-06  2488   0.171E-02    0.336E-03
DAV:   6    -0.570438139374E+02    0.36065E-06   -0.80639E-07  1864   0.244E-02    0.200E-03
DAV:   7    -0.570438137844E+02    0.15298E-06   -0.44440E-07  1104   0.146E-02    0.107E-03
DAV:   8    -0.570438137923E+02   -0.79162E-08   -0.18912E-07  1088   0.375E-03
  26 F= -.57043814E+02 E0= -.57038655E+02  d E =-.811850E-04
       N       E                     dE             d eps       ncg     rms          rms(c)
DAV:   1    -0.570438569500E+02   -0.43166E-04   -0.11862E-02  1872   0.333E-01    0.654E-03
DAV:   2    -0.570438788740E+02   -0.21924E-04   -0.23600E-04  2640   0.103E-01    0.802E-03
DAV:   3    -0.570438787494E+02    0.12460E-06   -0.19246E-05  1984   0.845E-02    0.611E-03
DAV:   4    -0.570438784470E+02    0.30235E-06   -0.38215E-06  1984   0.418E-02    0.446E-03
DAV:   5    -0.570438781106E+02    0.33641E-06   -0.13037E-06  2576   0.181E-02    0.349E-03
DAV:   6    -0.570438777418E+02    0.36881E-06   -0.87016E-07  1904   0.257E-02    0.209E-03
DAV:   7    -0.570438775638E+02    0.17798E-06   -0.48219E-07  1104   0.152E-02    0.107E-03
DAV:   8    -0.570438775651E+02   -0.12660E-08   -0.21113E-07  1088   0.390E-03
  27 F= -.57043878E+02 E0= -.57038711E+02  d E =-.637728E-04
       N       E                     dE             d eps       ncg     rms          rms(c)
DAV:   1    -0.570439288198E+02   -0.51256E-04   -0.12659E-02  1864   0.344E-01    0.677E-03
DAV:   2    -0.570439518669E+02   -0.23047E-04   -0.24827E-04  2640   0.106E-01    0.821E-03
DAV:   3    -0.570439516954E+02    0.17153E-06   -0.20287E-05  1984   0.873E-02    0.629E-03
DAV:   4    -0.570439513728E+02    0.32260E-06   -0.39950E-06  2000   0.426E-02    0.456E-03
DAV:   5    -0.570439510346E+02    0.33824E-06   -0.13771E-06  2600   0.185E-02    0.353E-03
DAV:   6    -0.570439506599E+02    0.37467E-06   -0.92287E-07  1904   0.265E-02    0.208E-03
DAV:   7    -0.570439504869E+02    0.17299E-06   -0.50653E-07  1160   0.155E-02    0.106E-03
DAV:   8    -0.570439504933E+02   -0.64210E-08   -0.20583E-07  1080   0.394E-03
  28 F= -.57043950E+02 E0= -.57038774E+02  d E =-.729282E-04
       N       E                     dE             d eps       ncg     rms          rms(c)
DAV:   1    -0.570439546929E+02   -0.42060E-05   -0.10066E-02  1824   0.294E-01    0.659E-03
DAV:   2    -0.570439750693E+02   -0.20376E-04   -0.21761E-04  2624   0.966E-02    0.734E-03
DAV:   3    -0.570439751516E+02   -0.82338E-07   -0.16109E-05  2056   0.764E-02    0.563E-03
DAV:   4    -0.570439748409E+02    0.31074E-06   -0.37483E-06  1976   0.464E-02    0.407E-03
DAV:   5    -0.570439745921E+02    0.24878E-06   -0.13247E-06  2544   0.208E-02    0.306E-03
DAV:   6    -0.570439743727E+02    0.21941E-06   -0.78100E-07  1888   0.250E-02    0.200E-03
DAV:   7    -0.570439742323E+02    0.14042E-06   -0.35146E-07  1088   0.131E-02    0.109E-03
DAV:   8    -0.570439742278E+02    0.44311E-08   -0.11845E-07  1120   0.426E-03
  29 F= -.57043974E+02 E0= -.57038800E+02  d E =-.237345E-04
       N       E                     dE             d eps       ncg     rms          rms(c)
DAV:   1    -0.570439810014E+02   -0.67691E-05   -0.36940E-05  1904   0.189E-02    0.117E-03
DAV:   2    -0.570439810620E+02   -0.60616E-07   -0.79034E-07  2168   0.740E-03
  30 F= -.57043981E+02 E0= -.57038805E+02  d E =-.683415E-05
       N       E                     dE             d eps       ncg     rms          rms(c)
DAV:   1    -0.570439930654E+02   -0.12064E-04   -0.11031E-04  1808   0.334E-02    0.144E-03
DAV:   2    -0.570439932527E+02   -0.18733E-06   -0.24112E-06  2632   0.890E-03    0.134E-03
DAV:   3    -0.570439932531E+02   -0.35288E-09   -0.11688E-07  1024   0.702E-03
  31 F= -.57043993E+02 E0= -.57038816E+02  d E =-.121911E-04
       N       E                     dE             d eps       ncg     rms          rms(c)
DAV:   1    -0.570440093196E+02   -0.16067E-04   -0.18451E-04  1872   0.431E-02    0.168E-03
DAV:   2    -0.570440096105E+02   -0.29089E-06   -0.35230E-06  2624   0.106E-02    0.153E-03
DAV:   3    -0.570440095871E+02    0.23414E-07   -0.10565E-07  1008   0.565E-03
  32 F= -.57044010E+02 E0= -.57038830E+02  d E =-.163340E-04
