unknown system                          
           1
     5.147737    0.000000    0.000000
     0.000000    5.147737    0.000000
     0.000000    0.000000   35.260000
   Cu   Ag
    16     1
Direct configuration=     1
   0.25000000  0.25000000  0.99705048
   0.75000000  0.25000000  0.99705048
   0.25000000  0.75000000  0.99705048
   0.75000000  0.75000000  0.99705048
   0.00000000  0.00000000  0.04866704
   0.50000000  0.00000000  0.04866704
   0.00000000  0.50000000  0.04866704
   0.50000000  0.50000000  0.04866704
   0.25020300  0.24989480  0.09978446
   0.75018058  0.25009451  0.10037461
   0.25019526  0.75017101  0.09964462
   0.75017293  0.74998776  0.10013895
   0.99892800  0.00043923  0.15042318
   0.50168033  0.00043677  0.15043628
   0.99668182  0.49886735  0.15003091
   0.50392192  0.49887213  0.15004509
   0.25016014  0.58338298  0.20415031
Direct configuration=     2
   0.25000000  0.25000000  0.99705048
   0.75000000  0.25000000  0.99705048
   0.25000000  0.75000000  0.99705048
   0.75000000  0.75000000  0.99705048
   0.00000000  0.00000000  0.04866704
   0.50000000  0.00000000  0.04866704
   0.00000000  0.50000000  0.04866704
   0.50000000  0.50000000  0.04866704
   0.25019912  0.24955733  0.09978456
   0.75017812  0.25003904  0.10035382
   0.25019168  0.75047204  0.09963733
   0.75017054  0.75001575  0.10010706
   0.99973641 -0.00006714  0.15051815
   0.50086119 -0.00006885  0.15053016
   0.99351929  0.49782638  0.14941417
   0.50706795  0.49783341  0.14942941
   0.25016682  0.58361788  0.20526112
Direct configuration=     3
   0.25000000  0.25000000  0.99705048
   0.75000000  0.25000000  0.99705048
   0.25000000  0.75000000  0.99705048
   0.75000000  0.75000000  0.99705048
   0.00000000  0.00000000  0.04866704
   0.50000000  0.00000000  0.04866704
   0.00000000  0.50000000  0.04866704
   0.50000000  0.50000000  0.04866704
   0.25019212  0.24875051  0.09976270
   0.75017220  0.24916349  0.10021572
   0.25018475  0.75105161  0.09961554
   0.75016489  0.75062423  0.09996803
   1.00122899 -0.00125382  0.15071529
   0.49934532 -0.00125380  0.15072527
   0.99046835  0.49663802  0.14869701
   0.51008862  0.49664631  0.14871238
   0.25017380  0.58436789  0.20665398
Direct configuration=     4
   0.25000000  0.25000000  0.99705048
   0.75000000  0.25000000  0.99705048
   0.25000000  0.75000000  0.99705048
   0.75000000  0.75000000  0.99705048
   0.00000000  0.00000000  0.04866704
   0.50000000  0.00000000  0.04866704
   0.00000000  0.50000000  0.04866704
   0.50000000  0.50000000  0.04866704
   0.25017901  0.24722222  0.09968755
   0.75015651  0.24613177  0.09983100
   0.25017149  0.75173305  0.09955021
   0.75015242  0.75258184  0.09962124
   1.00306498 -0.00350050  0.15104901
   0.49746538 -0.00349785  0.15105526
   0.99188991  0.49618491  0.14849376
   0.50861653  0.49619026  0.14850541
   0.25018064  0.58488648  0.20746787
Direct configuration=     5
   0.25000000  0.25000000  0.99705048
   0.75000000  0.25000000  0.99705048
   0.25000000  0.75000000  0.99705048
   0.75000000  0.75000000  0.99705048
   0.00000000  0.00000000  0.04866704
   0.50000000  0.00000000  0.04866704
   0.00000000  0.50000000  0.04866704
   0.50000000  0.50000000  0.04866704
   0.25014748  0.24580725  0.09966862
   0.75013775  0.24526387  0.10001762
   0.25014279  0.75140866  0.09939945
   0.75013490  0.75172598  0.09966194
   1.00349948 -0.00577779  0.15139822
   0.49696685 -0.00577732  0.15140079
   0.99378097  0.49515650  0.14847040
   0.50664691  0.49516013  0.14847708
   0.25018896  0.58461536  0.20774764
Direct configuration=     6
   0.25000000  0.25000000  0.99705048
   0.75000000  0.25000000  0.99705048
   0.25000000  0.75000000  0.99705048
   0.75000000  0.75000000  0.99705048
   0.00000000  0.00000000  0.04866704
   0.50000000  0.00000000  0.04866704
   0.00000000  0.50000000  0.04866704
   0.50000000  0.50000000  0.04866704
   0.25012059  0.24437066  0.09973798
   0.75011438  0.24382380  0.10020880
   0.25011440  0.75100304  0.09943676
   0.75011266  0.75122729  0.09984816
   1.00372076 -0.00724537  0.15156762
   0.49667601 -0.00724251  0.15156850
   0.99332549  0.49374209  0.14854298
   0.50703298  0.49373725  0.14854353
   0.25019258  0.58401753  0.20800220
Direct configuration=     7
   0.25000000  0.25000000  0.99705048
   0.75000000  0.25000000  0.99705048
   0.25000000  0.75000000  0.99705048
   0.75000000  0.75000000  0.99705048
   0.00000000  0.00000000  0.04866704
   0.50000000  0.00000000  0.04866704
   0.00000000  0.50000000  0.04866704
   0.50000000  0.50000000  0.04866704
   0.25011438  0.24443262  0.09975156
   0.75011324  0.24372691  0.10018883
   0.25010966  0.75065304  0.09945246
   0.75011037  0.75099519  0.09983057
   1.00373215 -0.00753077  0.15161237
   0.49665095 -0.00752981  0.15161318
   0.99384236  0.49358198  0.14861633
   0.50650092  0.49357844  0.14861704
   0.25018997  0.58415225  0.20796084
Direct configuration=     8
   0.25000000  0.25000000  0.99705048
   0.75000000  0.25000000  0.99705048
   0.25000000  0.75000000  0.99705048
   0.75000000  0.75000000  0.99705048
   0.00000000  0.00000000  0.04866704
   0.50000000  0.00000000  0.04866704
   0.00000000  0.50000000  0.04866704
   0.50000000  0.50000000  0.04866704
   0.25010884  0.24434360  0.09976833
   0.75010909  0.24372237  0.10021462
   0.25010476  0.75044323  0.09946751
   0.75010623  0.75069142  0.09985138
   1.00373023 -0.00779613  0.15165153
   0.49663638 -0.00779694  0.15165219
   0.99388075  0.49331651  0.14864495
   0.50644520  0.49331224  0.14864523
   0.25018575  0.58416670  0.20799887
Direct configuration=     9
   0.25000000  0.25000000  0.99705048
   0.75000000  0.25000000  0.99705048
   0.25000000  0.75000000  0.99705048
   0.75000000  0.75000000  0.99705048
   0.00000000  0.00000000  0.04866704
   0.50000000  0.00000000  0.04866704
   0.00000000  0.50000000  0.04866704
   0.50000000  0.50000000  0.04866704
   0.25010375  0.24419565  0.09978416
   0.75010471  0.24358224  0.10023557
   0.25009988  0.75030420  0.09948146
   0.75010194  0.75053074  0.09987026
   1.00373142 -0.00806305  0.15168418
   0.49661969 -0.00806515  0.15168467
   0.99393227  0.49306974  0.14868135
   0.50637783  0.49306450  0.14868109
   0.25018189  0.58453902  0.20802625
Direct configuration=    10
   0.25000000  0.25000000  0.99705048
   0.75000000  0.25000000  0.99705048
   0.25000000  0.75000000  0.99705048
   0.75000000  0.75000000  0.99705048
   0.00000000  0.00000000  0.04866704
   0.50000000  0.00000000  0.04866704
   0.00000000  0.50000000  0.04866704
   0.50000000  0.50000000  0.04866704
   0.25009704  0.24404235  0.09980414
   0.75009930  0.24344417  0.10026353
   0.25009368  0.75014881  0.09949960
   0.75009649  0.75034699  0.09989709
   1.00373286 -0.00833318  0.15172192
   0.49659933 -0.00833637  0.15172234
   0.99396232  0.49281286  0.14872369
   0.50632881  0.49280641  0.14872272
   0.25017583  0.58461187  0.20806858
Direct configuration=    11
   0.25000000  0.25000000  0.99705048
   0.75000000  0.25000000  0.99705048
   0.25000000  0.75000000  0.99705048
   0.75000000  0.75000000  0.99705048
   0.00000000  0.00000000  0.04866704
   0.50000000  0.00000000  0.04866704
   0.00000000  0.50000000  0.04866704
   0.50000000  0.50000000  0.04866704
   0.25008931  0.24388630  0.09982783
   0.75009298  0.24329247  0.10029440
   0.25008674  0.74998610  0.09952099
   0.75009041  0.75016450  0.09992709
   1.00373490 -0.00860929  0.15176322
   0.49657453 -0.00861335  0.15176351
   0.99398916  0.49255018  0.14877209
   0.50628110  0.49254313  0.14877048
   0.25016846  0.58467104  0.20811986
Direct configuration=    12
   0.25000000  0.25000000  0.99705048
   0.75000000  0.25000000  0.99705048
   0.25000000  0.75000000  0.99705048
   0.75000000  0.75000000  0.99705048
   0.00000000  0.00000000  0.04866704
   0.50000000  0.00000000  0.04866704
   0.00000000  0.50000000  0.04866704
   0.50000000  0.50000000  0.04866704
   0.25008058  0.24373637  0.09985458
   0.75008516  0.24314732  0.10032807
   0.25007864  0.74981864  0.09954533
   0.75008289  0.74997476  0.09995968
   1.00373625 -0.00888440  0.15180794
   0.49654777 -0.00888897  0.15180790
   0.99401096  0.49229056  0.14882593
   0.50623440  0.49228409  0.14882380
   0.25016473  0.58474092  0.20818106
Direct configuration=    13
   0.25000000  0.25000000  0.99705048
   0.75000000  0.25000000  0.99705048
   0.25000000  0.75000000  0.99705048
   0.75000000  0.75000000  0.99705048
   0.00000000  0.00000000  0.04866704
   0.50000000  0.00000000  0.04866704
   0.00000000  0.50000000  0.04866704
   0.50000000  0.50000000  0.04866704
   0.25007130  0.24359461  0.09988443
   0.75007699  0.24300648  0.10036400
   0.25006951  0.74965585  0.09957237
   0.75007517  0.74979143  0.09999417
   1.00373466 -0.00915186  0.15185547
   0.49652092 -0.00915564  0.15185525
   0.99404617  0.49204487  0.14888838
   0.50617503  0.49203685  0.14888524
   0.25015294  0.58482573  0.20824677
Direct configuration=    14
   0.25000000  0.25000000  0.99705048
   0.75000000  0.25000000  0.99705048
   0.25000000  0.75000000  0.99705048
   0.75000000  0.75000000  0.99705048
   0.00000000  0.00000000  0.04866704
   0.50000000  0.00000000  0.04866704
   0.00000000  0.50000000  0.04866704
   0.50000000  0.50000000  0.04866704
   0.25006104  0.24347368  0.09991754
   0.75006849  0.24290455  0.10040591
   0.25006010  0.74949816  0.09960203
   0.75006567  0.74959479  0.10003296
   1.00373109 -0.00940006  0.15190587
   0.49649161 -0.00940491  0.15190529
   0.99404766  0.49180892  0.14895168
   0.50614323  0.49180335  0.14894866
   0.25014550  0.58492682  0.20832315
Direct configuration=    15
   0.25000000  0.25000000  0.99705048
   0.75000000  0.25000000  0.99705048
   0.25000000  0.75000000  0.99705048
   0.75000000  0.75000000  0.99705048
   0.00000000  0.00000000  0.04866704
   0.50000000  0.00000000  0.04866704
   0.00000000  0.50000000  0.04866704
   0.50000000  0.50000000  0.04866704
   0.25005232  0.24335924  0.09995018
   0.75005577  0.24274456  0.10043905
   0.25004894  0.74936712  0.09963260
   0.75005607  0.74948295  0.10006512
   1.00372756 -0.00963047  0.15195669
   0.49645978 -0.00963308  0.15195606
   0.99414625  0.49162585  0.14903143
   0.50601729  0.49161608  0.14902731
   0.25013278  0.58506988  0.20838834
Direct configuration=    16
   0.25000000  0.25000000  0.99705048
   0.75000000  0.25000000  0.99705048
   0.25000000  0.75000000  0.99705048
   0.75000000  0.75000000  0.99705048
   0.00000000  0.00000000  0.04866704
   0.50000000  0.00000000  0.04866704
   0.00000000  0.50000000  0.04866704
   0.50000000  0.50000000  0.04866704
   0.25004253  0.24334307  0.09997200
   0.75005383  0.24286914  0.10048299
   0.25004443  0.74927800  0.09964952
   0.75004873  0.74925596  0.10010094
   1.00371700 -0.00971741  0.15198543
   0.49644834 -0.00972394  0.15198510
   0.99395031  0.49148879  0.14904113
   0.50619450  0.49148313  0.14903770
   0.25012135  0.58513266  0.20846292
Direct configuration=    17
   0.25000000  0.25000000  0.99705048
   0.75000000  0.25000000  0.99705048
   0.25000000  0.75000000  0.99705048
   0.75000000  0.75000000  0.99705048
   0.00000000  0.00000000  0.04866704
   0.50000000  0.00000000  0.04866704
   0.00000000  0.50000000  0.04866704
   0.50000000  0.50000000  0.04866704
   0.25004259  0.24333708  0.09997243
   0.75005328  0.24284810  0.10048158
   0.25004413  0.74927689  0.09965020
   0.75004856  0.74926742  0.10010017
   1.00371748 -0.00972590  0.15198656
   0.49644700 -0.00973227  0.15198623
   0.99397325  0.49148918  0.14904574
   0.50617092  0.49148326  0.14904229
   0.25012091  0.58515014  0.20846058
Direct configuration=    18
   0.25000000  0.25000000  0.99705048
   0.75000000  0.25000000  0.99705048
   0.25000000  0.75000000  0.99705048
   0.75000000  0.75000000  0.99705048
   0.00000000  0.00000000  0.04866704
   0.50000000  0.00000000  0.04866704
   0.00000000  0.50000000  0.04866704
   0.50000000  0.50000000  0.04866704
   0.25004258  0.24332577  0.09997350
   0.75005217  0.24281037  0.10047952
   0.25004348  0.74927370  0.09965160
   0.75004815  0.74928614  0.10009909
   1.00371813 -0.00974285  0.15198897
   0.49644446 -0.00974893  0.15198863
   0.99401331  0.49148747  0.14905438
   0.50612944  0.49148113  0.14905090
   0.25012007  0.58518765  0.20845737
Direct configuration=    19
   0.25000000  0.25000000  0.99705048
   0.75000000  0.25000000  0.99705048
   0.25000000  0.75000000  0.99705048
   0.75000000  0.75000000  0.99705048
   0.00000000  0.00000000  0.04866704
   0.50000000  0.00000000  0.04866704
   0.00000000  0.50000000  0.04866704
   0.50000000  0.50000000  0.04866704
   0.25004229  0.24331012  0.09997567
   0.75005052  0.24276381  0.10047818
   0.25004235  0.74926696  0.09965400
   0.75004740  0.74930507  0.10009866
   1.00371855 -0.00976785  0.15199307
   0.49644075 -0.00977363  0.15199272
   0.99406247  0.49148019  0.14906648
   0.50607768  0.49147326  0.14906298
   0.25011865  0.58524071  0.20845499
Direct configuration=    20
   0.25000000  0.25000000  0.99705048
   0.75000000  0.25000000  0.99705048
   0.25000000  0.75000000  0.99705048
   0.75000000  0.75000000  0.99705048
   0.00000000  0.00000000  0.04866704
   0.50000000  0.00000000  0.04866704
   0.00000000  0.50000000  0.04866704
   0.50000000  0.50000000  0.04866704
   0.25004141  0.24329263  0.09997962
   0.75004828  0.24272067  0.10047983
   0.25004069  0.74925398  0.09965782
   0.75004608  0.74931145  0.10010060
   1.00371854 -0.00980050  0.15199969
   0.49643535 -0.00980606  0.15199935
   0.99410255  0.49146249  0.14908048
   0.50603318  0.49145487  0.14907697
   0.25011632  0.58530121  0.20845728
Direct configuration=    21
   0.25000000  0.25000000  0.99705048
   0.75000000  0.25000000  0.99705048
   0.25000000  0.75000000  0.99705048
   0.75000000  0.75000000  0.99705048
   0.00000000  0.00000000  0.04866704
   0.50000000  0.00000000  0.04866704
   0.00000000  0.50000000  0.04866704
   0.50000000  0.50000000  0.04866704
   0.25003978  0.24327892  0.09998505
   0.75004610  0.24270712  0.10048643
   0.25003873  0.74923537  0.09966241
   0.75004426  0.74928928  0.10010622
   1.00371687 -0.00983166  0.15200796
   0.49643028 -0.00983718  0.15200762
   0.99410378  0.49143339  0.14909090
   0.50602660  0.49142520  0.14908745
   0.25011263  0.58535754  0.20846695
Direct configuration=    22
   0.25000000  0.25000000  0.99705048
   0.75000000  0.25000000  0.99705048
   0.25000000  0.75000000  0.99705048
   0.75000000  0.75000000  0.99705048
   0.00000000  0.00000000  0.04866704
   0.50000000  0.00000000  0.04866704
   0.00000000  0.50000000  0.04866704
   0.50000000  0.50000000  0.04866704
   0.25003758  0.24326408  0.09999114
   0.75004367  0.24269166  0.10049368
   0.25003659  0.74921505  0.09966779
   0.75004188  0.74926540  0.10011268
   1.00371517 -0.00986600  0.15201752
   0.49642383 -0.00987185  0.15201715
   0.99410573  0.49140238  0.14910296
   0.50601807  0.49139405  0.14909957
   0.25010919  0.58541513  0.20847731
Direct configuration=    23
   0.25000000  0.25000000  0.99705048
   0.75000000  0.25000000  0.99705048
   0.25000000  0.75000000  0.99705048
   0.75000000  0.75000000  0.99705048
   0.00000000  0.00000000  0.04866704
   0.50000000  0.00000000  0.04866704
   0.00000000  0.50000000  0.04866704
   0.50000000  0.50000000  0.04866704
   0.25003479  0.24324910  0.09999797
   0.75004092  0.24267667  0.10050189
   0.25003411  0.74919291  0.09967395
   0.75003916  0.74923868  0.10012011
   1.00371250 -0.00990182  0.15202796
   0.49641704 -0.00990753  0.15202767
   0.99410535  0.49136971  0.14911578
   0.50601090  0.49136122  0.14911247
   0.25010466  0.58547008  0.20849022
Direct configuration=    24
   0.25000000  0.25000000  0.99705048
   0.75000000  0.25000000  0.99705048
   0.25000000  0.75000000  0.99705048
   0.75000000  0.75000000  0.99705048
   0.00000000  0.00000000  0.04866704
   0.50000000  0.00000000  0.04866704
   0.00000000  0.50000000  0.04866704
   0.50000000  0.50000000  0.04866704
   0.25003184  0.24323345  0.10000524
   0.75003757  0.24266091  0.10051043
   0.25003131  0.74917089  0.09968063
   0.75003596  0.74921168  0.10012808
   1.00370968 -0.00993738  0.15203928
   0.49640908 -0.00994314  0.15203897
   0.99410760  0.49133865  0.14913005
   0.50599998  0.49133031  0.14912681
   0.25009869  0.58551053  0.20850544
Direct configuration=    25
   0.25000000  0.25000000  0.99705048
   0.75000000  0.25000000  0.99705048
   0.25000000  0.75000000  0.99705048
   0.75000000  0.75000000  0.99705048
   0.00000000  0.00000000  0.04866704
   0.50000000  0.00000000  0.04866704
   0.00000000  0.50000000  0.04866704
   0.50000000  0.50000000  0.04866704
   0.25002820  0.24321878  0.10001302
   0.75003396  0.24264688  0.10051979
   0.25002768  0.74914899  0.09968768
   0.75003249  0.74918393  0.10013665
   1.00370554 -0.00997206  0.15205122
   0.49640003 -0.00997775  0.15205095
   0.99411046  0.49130840  0.14914530
   0.50598699  0.49130018  0.14914216
   0.25009319  0.58554213  0.20852252
Direct configuration=    26
   0.25000000  0.25000000  0.99705048
   0.75000000  0.25000000  0.99705048
   0.25000000  0.75000000  0.99705048
   0.75000000  0.75000000  0.99705048
   0.00000000  0.00000000  0.04866704
   0.50000000  0.00000000  0.04866704
   0.00000000  0.50000000  0.04866704
   0.50000000  0.50000000  0.04866704
   0.25002425  0.24320458  0.10002111
   0.75002929  0.24263575  0.10052980
   0.25002427  0.74912819  0.09969506
   0.75002827  0.74915465  0.10014593
   1.00370063 -0.01000610  0.15206345
   0.49638988 -0.01001150  0.15206328
   0.99411194  0.49128045  0.14916136
   0.50597450  0.49127217  0.14915820
   0.25008433  0.58556771  0.20854146
Direct configuration=    27
   0.25000000  0.25000000  0.99705048
   0.75000000  0.25000000  0.99705048
   0.25000000  0.75000000  0.99705048
   0.75000000  0.75000000  0.99705048
   0.00000000  0.00000000  0.04866704
   0.50000000  0.00000000  0.04866704
   0.00000000  0.50000000  0.04866704
   0.50000000  0.50000000  0.04866704
   0.25002022  0.24319228  0.10002932
   0.75002570  0.24261826  0.10053912
   0.25002016  0.74910639  0.09970245
   0.75002437  0.74913299  0.10015440
   1.00369540 -0.01003893  0.15207571
   0.49637838 -0.01004392  0.15207562
   0.99412337  0.49125399  0.14917906
   0.50594928  0.49124719  0.14917651
   0.25006817  0.58559972  0.20856020
Direct configuration=    28
   0.25000000  0.25000000  0.99705048
   0.75000000  0.25000000  0.99705048
   0.25000000  0.75000000  0.99705048
   0.75000000  0.75000000  0.99705048
   0.00000000  0.00000000  0.04866704
   0.50000000  0.00000000  0.04866704
   0.00000000  0.50000000  0.04866704
   0.50000000  0.50000000  0.04866704
   0.25001816  0.24318598  0.10003593
   0.75001863  0.24264359  0.10055104
   0.25001708  0.74908836  0.09970826
   0.75001824  0.74908144  0.10016480
   1.00368877 -0.01006157  0.15208521
   0.49636982 -0.01006581  0.15208489
   0.99408027  0.49122857  0.14918578
   0.50597919  0.49122313  0.14918371
   0.25005654  0.58561595  0.20858315
Direct configuration=    29
   0.25000000  0.25000000  0.99705048
   0.75000000  0.25000000  0.99705048
   0.25000000  0.75000000  0.99705048
   0.75000000  0.75000000  0.99705048
   0.00000000  0.00000000  0.04866704
   0.50000000  0.00000000  0.04866704
   0.00000000  0.50000000  0.04866704
   0.50000000  0.50000000  0.04866704
   0.25001794  0.24318517  0.10003597
   0.75001872  0.24263904  0.10055063
   0.25001691  0.74908831  0.09970834
   0.75001827  0.74908464  0.10016451
   1.00368881 -0.01006268  0.15208534
   0.49636953 -0.01006689  0.15208504
   0.99408584  0.49122918  0.14918672
   0.50597337  0.49122378  0.14918467
   0.25005635  0.58561830  0.20858235
Direct configuration=    30
   0.25000000  0.25000000  0.99705048
   0.75000000  0.25000000  0.99705048
   0.25000000  0.75000000  0.99705048
   0.75000000  0.75000000  0.99705048
   0.00000000  0.00000000  0.04866704
   0.50000000  0.00000000  0.04866704
   0.00000000  0.50000000  0.04866704
   0.50000000  0.50000000  0.04866704
   0.25001750  0.24318371  0.10003608
   0.75001890  0.24263065  0.10054988
   0.25001659  0.74908819  0.09970849
   0.75001835  0.74909053  0.10016398
   1.00368889 -0.01006473  0.15208559
   0.49636896 -0.01006886  0.15208531
   0.99409610  0.49123017  0.14918838
   0.50596263  0.49122483  0.14918637
   0.25005584  0.58562309  0.20858152
Direct configuration=    31
   0.25000000  0.25000000  0.99705048
   0.75000000  0.25000000  0.99705048
   0.25000000  0.75000000  0.99705048
   0.75000000  0.75000000  0.99705048
   0.00000000  0.00000000  0.04866704
   0.50000000  0.00000000  0.04866704
   0.00000000  0.50000000  0.04866704
   0.50000000  0.50000000  0.04866704
   0.25001684  0.24318187  0.10003630
   0.75001910  0.24262055  0.10054910
   0.25001611  0.74908772  0.09970870
   0.75001839  0.74909710  0.10016339
   1.00368881 -0.01006774  0.15208609
   0.49636814 -0.01007173  0.15208584
   0.99410889  0.49123074  0.14919073
   0.50594901  0.49122552  0.14918877
   0.25005448  0.58562978  0.20858081
Direct configuration=    32
   0.25000000  0.25000000  0.99705048
   0.75000000  0.25000000  0.99705048
   0.25000000  0.75000000  0.99705048
   0.75000000  0.75000000  0.99705048
   0.00000000  0.00000000  0.04866704
   0.50000000  0.00000000  0.04866704
   0.00000000  0.50000000  0.04866704
   0.50000000  0.50000000  0.04866704
   0.25001684  0.24318187  0.10003630
   0.75001910  0.24262055  0.10054910
   0.25001611  0.74908772  0.09970870
   0.75001839  0.74909710  0.10016339
   1.00368881 -0.01006774  0.15208609
   0.49636814 -0.01007173  0.15208584
   0.99410889  0.49123074  0.14919073
   0.50594901  0.49122552  0.14918877
   0.25005448  0.58562978  0.20858081
